ITEM: TIMESTEP
200
ITEM: NUMBER OF ATOMS
4000
ITEM: BOX BOUNDS pp pp pp
0.0 35.2
0.0 35.2
0.0 35.2
ITEM: ATOMS id type mass x y z c_1[1] c_1[2] structure_types fault_types 
1000 1 58.71 31.6636 15.8429 15.8839 1000 0.332669 1 0
2 1 58.71 1.80368 1.70684 0.00251836 0 0.0 1 0
996 1 58.71 28.173 15.8168 15.7839 996 -0.0858835 1 0
4 1 58.71 35.2042 1.75742 1.76643 0 0.0 1 0
992 1 58.71 24.7026 15.8181 15.8293 992 -0.426206 1 0
23 1 58.71 19.3096 0.0536694 1.80044 23 0.200986 1 0
988 1 58.71 21.1189 15.7702 15.8218 988 0.530361 1 0
8 1 58.71 3.53323 1.68258 1.76339 0 0.0 1 0
984 1 58.71 17.6496 15.7989 15.8805 984 0.0254807 1 0
12 1 58.71 7.09723 1.72161 1.75211 0 0.0 1 0
2817 1 58.71 14.1452 17.558 14.1107 0 0.0 1 0
980 1 58.71 14.1576 15.7934 15.9656 0 0.0 1 0
976 1 58.71 10.5991 15.8298 15.8487 0 0.0 1 0
16 1 58.71 10.618 1.71534 1.79828 0 0.0 1 0
30 1 58.71 26.3202 1.80421 -0.00124097 30 0.219155 1 0
972 1 58.71 7.11533 15.7651 15.9647 0 0.0 1 0
201 1 58.71 0.0414277 0.0160655 3.53613 0 0.0 1 0
21 1 58.71 17.5658 0.104157 0.0702544 21 -0.0788029 1 0
968 1 58.71 3.54973 15.8403 15.8323 0 0.0 1 0
20 1 58.71 14.083 1.71809 1.83889 0 0.0 1 0
964 1 58.71 0.0507456 15.7825 15.7801 0 0.0 1 0
24 1 58.71 17.4895 1.74234 1.82451 24 0.338855 1 0
38 1 58.71 33.4537 1.63997 0.0361496 38 -0.350019 1 0
999 1 58.71 33.4552 14.0815 15.7876 999 0.0296376 1 0
995 1 58.71 29.9213 14.1281 15.9301 995 0.612277 1 0
28 1 58.71 21.0849 1.87313 1.75574 28 -0.0562013 1 0
1194 1 58.71 29.8512 15.879 17.5745 1194 0.597812 1 0
58 1 58.71 15.8287 5.29075 0.0176955 0 0.0 1 0
2819 1 58.71 15.9307 17.5848 15.8535 0 0.0 1 0
3 1 58.71 1.69957 0.0722902 1.85019 0 0.0 1 0
960 1 58.71 31.713 12.3569 15.8369 960 -0.127674 1 0
32 1 58.71 24.5008 1.71981 1.7688 32 0.573761 1 0
956 1 58.71 28.3094 12.3401 15.845 956 -0.855904 1 0
36 1 58.71 28.1188 1.58843 1.748 36 0.4507 1 0
101 1 58.71 17.6462 7.03311 0.0187661 101 -0.264555 1 0
49 1 58.71 6.9561 3.44974 -0.0000302659 0 0.0 1 0
2827 1 58.71 22.8983 17.6388 15.7938 2827 -0.0462882 1 0
40 1 58.71 31.6039 1.78366 1.78942 40 0.60364 1 0
45 1 58.71 3.48044 3.47939 -0.0292159 0 0.0 1 0
2621 1 58.71 17.6425 17.5847 10.6442 2621 -0.105105 1 0
50 1 58.71 8.79089 5.251 0.136959 0 0.0 1 0
62 1 58.71 19.3693 5.29436 -0.0199902 62 -0.268304 1 0
43 1 58.71 1.79761 3.46032 1.76744 0 0.0 1 0
44 1 58.71 35.1568 5.21005 1.74972 0 0.0 1 0
26 1 58.71 22.7732 1.78878 0.0027224 26 0.59251 1 0
39 1 58.71 33.443 0.0257176 1.79515 39 0.230312 1 0
47 1 58.71 5.26938 3.4477 1.75115 0 0.0 1 0
48 1 58.71 3.5352 5.23621 1.78965 0 0.0 1 0
9 1 58.71 7.03863 0.0145206 -0.0417842 0 0.0 1 0
52 1 58.71 7.00693 5.21795 1.78966 0 0.0 1 0
421 1 58.71 17.6098 0.0806189 7.04494 421 0.0315666 1 0
51 1 58.71 8.80811 3.4718 1.77488 0 0.0 1 0
209 1 58.71 7.03473 0.0452118 3.58819 0 0.0 1 0
56 1 58.71 10.6208 5.21605 1.76632 0 0.0 1 0
2615 1 58.71 12.2795 17.5909 12.3147 0 0.0 1 0
55 1 58.71 12.3671 3.45727 1.76013 0 0.0 1 0
2421 1 58.71 17.6725 17.5833 7.07942 2421 -0.712969 1 0
2839 1 58.71 33.5082 17.5239 15.7901 2839 -0.254942 1 0
59 1 58.71 15.7072 3.56737 1.81479 0 0.0 1 0
60 1 58.71 14.0514 5.31383 1.78525 0 0.0 1 0
61 1 58.71 17.5756 3.49268 0.0582923 61 -0.290996 1 0
64 1 58.71 17.5461 5.23217 1.78338 64 0.186964 1 0
409 1 58.71 7.11323 0.0193665 7.04284 0 0.0 1 0
63 1 58.71 19.3016 3.50465 1.73683 63 0.125219 1 0
2837 1 58.71 31.7695 17.5106 14.0526 2837 -0.512232 1 0
68 1 58.71 21.0625 5.27121 1.81539 68 -0.0289059 1 0
2811 1 58.71 8.79875 17.562 15.8168 0 0.0 1 0
67 1 58.71 22.8116 3.57607 1.80777 67 0.610542 1 0
2823 1 58.71 19.3815 17.5821 15.8348 2823 -0.591711 1 0
2805 1 58.71 3.56561 17.4669 13.9113 0 0.0 1 0
71 1 58.71 26.3458 3.44033 1.77959 71 0.204648 1 0
72 1 58.71 24.6167 5.26408 1.76312 72 -0.185681 1 0
2627 1 58.71 22.9426 17.5638 12.3022 2627 -0.088345 1 0
76 1 58.71 28.0355 5.23248 1.64429 76 0.852453 1 0
74 1 58.71 29.9356 5.29056 -0.0476184 74 -0.537698 1 0
75 1 58.71 29.8804 3.55041 1.80822 75 -0.301787 1 0
2633 1 58.71 28.2103 17.4696 10.5803 2633 -0.461056 1 0
80 1 58.71 31.6593 5.23488 1.73316 80 0.300331 1 0
2439 1 58.71 33.4274 17.5726 8.72481 2439 -0.18849 1 0
79 1 58.71 33.4498 3.51483 1.80471 79 -0.546843 1 0
2603 1 58.71 1.75407 17.6117 12.2287 0 0.0 1 0
83 1 58.71 1.74443 6.94288 1.72313 0 0.0 1 0
423 1 58.71 19.3896 0.0937735 8.87893 423 -0.212194 1 0
87 1 58.71 5.28871 7.04745 1.73553 0 0.0 1 0
2607 1 58.71 5.31331 17.5696 12.261 0 0.0 1 0
91 1 58.71 8.77245 7.02074 1.75983 0 0.0 1 0
2801 1 58.71 0.0461371 17.5414 14.0778 0 0.0 1 0
95 1 58.71 12.2433 7.06244 1.65489 0 0.0 1 0
2413 1 58.71 10.5641 17.5963 7.07603 0 0.0 1 0
99 1 58.71 15.7654 7.08556 1.72776 0 0.0 1 0
2803 1 58.71 1.7848 17.5585 15.7597 0 0.0 1 0
103 1 58.71 19.372 7.0235 1.75626 103 -0.524093 1 0
34 1 58.71 29.9335 1.69227 0.0497577 34 -0.206113 1 0
107 1 58.71 22.842 6.99762 1.74119 107 0.247638 1 0
73 1 58.71 28.1078 3.43831 0.00870752 73 0.782234 1 0
111 1 58.71 26.3229 6.95865 1.63838 111 0.0735665 1 0
2635 1 58.71 29.9459 17.5679 12.3063 2635 0.0333925 1 0
115 1 58.71 29.8903 6.95678 1.77291 115 -0.206768 1 0
2825 1 58.71 21.098 17.4866 14.105 2825 0.31813 1 0
119 1 58.71 33.4397 6.97942 1.73608 119 -0.270049 1 0
117 1 58.71 31.6487 7.05899 -0.0181068 117 0.364795 1 0
84 1 58.71 0.0528077 8.65086 1.66261 0 0.0 1 0
2431 1 58.71 26.4361 17.5616 8.74432 2431 -0.360507 1 0
123 1 58.71 1.74956 10.5421 1.751 0 0.0 1 0
2623 1 58.71 19.4068 17.5192 12.3643 2623 -0.350504 1 0
88 1 58.71 3.55366 8.77033 1.83881 0 0.0 1 0
2221 1 58.71 17.5727 17.5675 3.56595 2221 0.160217 1 0
127 1 58.71 5.32493 10.5978 1.68557 0 0.0 1 0
92 1 58.71 7.0563 8.79949 1.77974 0 0.0 1 0
3005 1 58.71 3.57932 17.551 17.5999 0 0.0 1 0
2625 1 58.71 21.196 17.552 10.5824 2625 -0.477295 1 0
96 1 58.71 10.5919 8.93976 1.70775 0 0.0 1 0
131 1 58.71 8.75342 10.6051 1.7142 0 0.0 1 0
57 1 58.71 14.0865 3.58124 -0.00120432 0 0.0 1 0
161 1 58.71 0.0537064 14.1442 0.0112079 0 0.0 1 0
135 1 58.71 12.308 10.6177 1.79785 0 0.0 1 0
2813 1 58.71 10.6385 17.5431 14.1193 0 0.0 1 0
100 1 58.71 14.049 8.79295 1.70996 0 0.0 1 0
6 1 58.71 5.28915 1.72353 0.0645986 0 0.0 1 0
139 1 58.71 15.7581 10.5221 1.70589 0 0.0 1 0
104 1 58.71 17.4541 8.79047 1.73809 104 1.35149 1 0
93 1 58.71 10.5471 7.00815 -0.000274184 0 0.0 1 0
2407 1 58.71 5.26171 17.5584 8.74631 0 0.0 1 0
108 1 58.71 21.1067 8.78293 1.73168 108 0.0286816 1 0
143 1 58.71 19.3718 10.4922 1.74175 143 -0.553406 1 0
2401 1 58.71 -0.0200852 17.5822 7.14345 0 0.0 1 0
2815 1 58.71 12.3348 17.6012 15.7852 0 0.0 1 0
147 1 58.71 22.8959 10.4934 1.71476 147 -0.241577 1 0
69 1 58.71 24.6122 3.49174 0.0845502 69 -0.578881 1 0
112 1 58.71 24.5737 8.76696 1.83208 112 0.363501 1 0
2425 1 58.71 21.2286 17.6142 7.04622 2425 -1.34299 1 0
151 1 58.71 26.3452 10.4784 1.7002 151 0.136279 1 0
116 1 58.71 28.0984 8.74073 1.73597 116 0.443237 1 0
3013 1 58.71 10.5643 17.6047 17.5828 0 0.0 1 0
1189 1 58.71 24.6794 14.0254 17.6043 1189 0.326008 1 0
120 1 58.71 31.6468 8.75553 1.76726 120 0.470214 1 0
155 1 58.71 29.8615 10.4564 1.72641 155 0.178827 1 0
2411 1 58.71 8.85919 17.5701 8.7417 0 0.0 1 0
225 1 58.71 21.1484 0.0116794 3.45539 225 -0.402693 1 0
159 1 58.71 33.4424 10.5333 1.74445 159 0.0950308 1 0
2807 1 58.71 5.33908 17.6343 15.8585 0 0.0 1 0
124 1 58.71 -0.00976153 12.316 1.79539 0 0.0 1 0
2821 1 58.71 17.641 17.5668 14.0564 2821 -0.141118 1 0
163 1 58.71 1.72858 14.082 1.76801 0 0.0 1 0
2213 1 58.71 10.6205 17.5767 3.50323 0 0.0 1 0
128 1 58.71 3.63127 12.2849 1.74421 0 0.0 1 0
429 1 58.71 24.6737 0.00921608 6.9562 429 -0.490367 1 0
167 1 58.71 5.27709 14.0794 1.74881 0 0.0 1 0
132 1 58.71 6.99679 12.3406 1.68058 0 0.0 1 0
223 1 58.71 19.4458 0.0517295 5.24984 223 -0.689307 1 0
1150 1 58.71 26.4877 12.355 17.5836 1150 -0.201724 1 0
136 1 58.71 10.4924 12.2921 1.75277 0 0.0 1 0
171 1 58.71 8.80551 14.1563 1.6969 0 0.0 1 0
146 1 58.71 22.7888 12.3325 0.00907623 146 0.794162 1 0
90 1 58.71 8.80861 8.79636 0.0519802 0 0.0 1 0
175 1 58.71 12.3119 14.1585 1.79996 0 0.0 1 0
82 1 58.71 1.77277 8.81875 -0.0155195 0 0.0 1 0
140 1 58.71 14.0156 12.3748 1.83027 0 0.0 1 0
2227 1 58.71 22.9108 17.6113 5.34517 2227 0.173872 1 0
179 1 58.71 15.7999 14.0677 1.71312 0 0.0 1 0
144 1 58.71 17.6136 12.2912 1.7864 144 -0.392287 1 0
2225 1 58.71 21.1771 17.5488 3.48754 2225 -0.472532 1 0
173 1 58.71 10.4933 14.1439 0.00105209 0 0.0 1 0
148 1 58.71 21.1126 12.2035 1.778 148 -0.125981 1 0
183 1 58.71 19.274 14.0675 1.7457 183 0.575663 1 0
1190 1 58.71 26.3955 15.8248 17.5662 1190 0.789183 1 0
2415 1 58.71 12.283 17.5451 8.79305 0 0.0 1 0
187 1 58.71 22.8979 14.0681 1.77445 187 -0.294501 1 0
2419 1 58.71 15.8353 17.5754 8.80515 0 0.0 1 0
152 1 58.71 24.5749 12.3203 1.77717 152 0.53156 1 0
1134 1 58.71 12.3532 12.1957 17.6504 0 0.0 1 0
191 1 58.71 26.4518 14.1122 1.73871 191 -1.04389 1 0
156 1 58.71 28.086 12.243 1.65609 156 0.55807 1 0
3029 1 58.71 24.6934 17.558 17.5973 3029 -0.159992 1 0
2809 1 58.71 7.03038 17.5485 14.0659 0 0.0 1 0
160 1 58.71 31.6748 12.3162 1.6733 160 0.0123306 1 0
195 1 58.71 29.9313 14.0173 1.71415 195 -0.413331 1 0
2417 1 58.71 14.0775 17.6 6.98262 0 0.0 1 0
2605 1 58.71 3.59301 17.5122 10.5406 0 0.0 1 0
199 1 58.71 33.4188 14.0669 1.82436 199 0.456395 1 0
1153 1 58.71 28.175 10.5214 17.5913 1153 0.033749 1 0
164 1 58.71 0.00779124 15.9452 1.79788 0 0.0 1 0
1141 1 58.71 17.6324 10.5921 17.5642 1141 -0.106237 1 0
168 1 58.71 3.52832 15.952 1.79067 0 0.0 1 0
172 1 58.71 7.07758 15.8711 1.7632 0 0.0 1 0
1017 1 58.71 14.1038 0.0598056 17.5141 0 0.0 1 0
176 1 58.71 10.5875 15.9146 1.7789 0 0.0 1 0
203 1 58.71 1.76114 0.0505837 5.31978 0 0.0 1 0
85 1 58.71 3.54253 7.0448 0.0279153 0 0.0 1 0
180 1 58.71 14.0702 15.9455 1.72717 0 0.0 1 0
184 1 58.71 17.6082 15.7788 1.71586 184 -0.780317 1 0
2631 1 58.71 26.372 17.5985 12.2966 2631 0.271287 1 0
188 1 58.71 21.154 15.7224 1.76612 188 -0.948167 1 0
601 1 58.71 35.1534 0.0132605 10.543 0 0.0 1 0
162 1 58.71 1.79075 15.7911 0.0037207 0 0.0 1 0
192 1 58.71 24.625 15.7637 1.71297 192 0.162372 1 0
196 1 58.71 28.1378 15.7639 1.66419 196 0.403184 1 0
130 1 58.71 8.78146 12.3396 -0.0264079 0 0.0 1 0
200 1 58.71 31.716 15.7986 1.69957 200 -0.294119 1 0
895 1 58.71 12.3405 7.11862 15.8515 0 0.0 1 0
991 1 58.71 26.4563 14.0228 15.7699 991 -0.144176 1 0
202 1 58.71 1.78686 1.76938 3.5551 0 0.0 1 0
1118 1 58.71 33.5355 8.90512 17.5626 1118 -0.488409 1 0
204 1 58.71 35.1482 1.73712 5.28848 0 0.0 1 0
952 1 58.71 24.7 12.3266 15.8393 952 0.129306 1 0
206 1 58.71 5.32026 1.67544 3.645 0 0.0 1 0
987 1 58.71 22.9559 14.0583 15.8672 987 -0.177758 1 0
208 1 58.71 3.58887 1.70487 5.3162 0 0.0 1 0
983 1 58.71 19.4405 14.0711 15.8276 983 -0.330069 1 0
212 1 58.71 7.05372 1.72054 5.33573 0 0.0 1 0
210 1 58.71 8.81325 1.79874 3.53321 0 0.0 1 0
948 1 58.71 21.198 12.3855 15.8632 948 -0.0815431 1 0
1166 1 58.71 5.24923 15.8248 17.5853 0 0.0 1 0
216 1 58.71 10.6203 1.73488 5.29128 0 0.0 1 0
214 1 58.71 12.3872 1.6496 3.61326 0 0.0 1 0
944 1 58.71 17.6156 12.3857 15.8293 944 0.350638 1 0
221 1 58.71 17.6029 0.0180266 3.58791 221 0.0835623 1 0
218 1 58.71 15.7976 1.79116 3.55513 0 0.0 1 0
1114 1 58.71 29.9526 8.91 17.59 1114 0.11818 1 0
220 1 58.71 14.0292 1.69173 5.38995 0 0.0 1 0
979 1 58.71 15.8899 14.0576 15.8665 0 0.0 1 0
224 1 58.71 17.5256 1.82536 5.23363 224 0.697848 1 0
222 1 58.71 19.3317 1.78578 3.61376 222 0.315809 1 0
940 1 58.71 14.0615 12.3085 15.8126 0 0.0 1 0
1157 1 58.71 31.7762 10.556 17.563 1157 -0.713497 1 0
228 1 58.71 21.1158 1.83707 5.33907 228 0.512483 1 0
226 1 58.71 22.8687 1.73224 3.55425 226 0.0447148 1 0
975 1 58.71 12.301 14.0081 15.8775 0 0.0 1 0
227 1 58.71 22.8469 -0.0349328 5.27212 227 0.47189 1 0
230 1 58.71 26.4083 1.68363 3.46611 230 -0.301499 1 0
41 1 58.71 -0.0381647 3.46457 0.114242 0 0.0 1 0
232 1 58.71 24.6999 1.70203 5.29303 232 -0.620382 1 0
2203 1 58.71 1.66157 17.5853 5.2626 0 0.0 1 0
236 1 58.71 28.2063 1.73789 5.19456 236 -0.702599 1 0
234 1 58.71 29.876 1.71638 3.52602 234 0.342478 1 0
971 1 58.71 8.80877 14.045 15.8329 0 0.0 1 0
433 1 58.71 28.158 0.0687622 7.07421 433 0.557825 1 0
240 1 58.71 31.6392 1.74533 5.25371 240 0.149858 1 0
238 1 58.71 33.3443 1.73428 3.55887 238 0.940534 1 0
936 1 58.71 10.5866 12.387 15.8039 0 0.0 1 0
241 1 58.71 0.0199705 3.52102 3.57234 0 0.0 1 0
242 1 58.71 1.75909 5.21932 3.5212 0 0.0 1 0
243 1 58.71 1.86129 3.51132 5.29859 0 0.0 1 0
244 1 58.71 0.0599832 5.27508 5.2773 0 0.0 1 0
245 1 58.71 3.53167 3.52021 3.53895 0 0.0 1 0
246 1 58.71 5.31315 5.29957 3.56369 0 0.0 1 0
247 1 58.71 5.2671 3.46101 5.36407 0 0.0 1 0
248 1 58.71 3.55653 5.35024 5.27969 0 0.0 1 0
249 1 58.71 7.02734 3.54105 3.52348 0 0.0 1 0
252 1 58.71 7.04817 5.31586 5.29154 0 0.0 1 0
250 1 58.71 8.83981 5.31571 3.46308 0 0.0 1 0
251 1 58.71 8.77444 3.55615 5.35745 0 0.0 1 0
253 1 58.71 10.6199 3.43284 3.52693 0 0.0 1 0
256 1 58.71 10.6276 5.30129 5.25558 0 0.0 1 0
254 1 58.71 12.3661 5.35238 3.54693 0 0.0 1 0
255 1 58.71 12.3727 3.5441 5.33493 0 0.0 1 0
257 1 58.71 14.1122 3.47595 3.54938 0 0.0 1 0
258 1 58.71 15.8051 5.28494 3.59637 0 0.0 1 0
259 1 58.71 15.8614 3.5618 5.28396 0 0.0 1 0
260 1 58.71 14.0782 5.3553 5.35488 0 0.0 1 0
261 1 58.71 17.5734 3.49672 3.59864 261 0.183921 1 0
264 1 58.71 17.5173 5.30996 5.26149 264 0.516582 1 0
262 1 58.71 19.348 5.29643 3.60773 262 -0.101356 1 0
263 1 58.71 19.3989 3.56253 5.28563 263 -0.847808 1 0
265 1 58.71 21.1575 3.46599 3.54591 265 -0.52405 1 0
268 1 58.71 21.1371 5.2153 5.28993 268 -0.103314 1 0
266 1 58.71 22.8429 5.35044 3.50431 266 -0.0135179 1 0
267 1 58.71 22.9132 3.5 5.28463 267 -0.0724365 1 0
269 1 58.71 24.628 3.45566 3.55577 269 -0.214359 1 0
270 1 58.71 26.3741 5.26668 3.50016 270 -0.017238 1 0
271 1 58.71 26.3316 3.47658 5.25304 271 0.711896 1 0
272 1 58.71 24.6132 5.22575 5.21796 272 0.267852 1 0
273 1 58.71 28.118 3.51596 3.53656 273 0.0674092 1 0
276 1 58.71 28.1126 5.25374 5.25626 276 0.577861 1 0
274 1 58.71 29.9281 5.24797 3.53065 274 -0.360484 1 0
275 1 58.71 29.9311 3.45707 5.27059 275 -0.00526815 1 0
277 1 58.71 31.6672 3.43881 3.52552 277 -0.0718012 1 0
280 1 58.71 31.663 5.29575 5.25154 280 -0.307135 1 0
278 1 58.71 33.4101 5.28108 3.5799 278 0.174575 1 0
279 1 58.71 33.4298 3.49331 5.32406 279 0.0301245 1 0
281 1 58.71 0.0437994 6.96982 3.47699 0 0.0 1 0
283 1 58.71 1.79001 7.06516 5.30205 0 0.0 1 0
285 1 58.71 3.48264 6.98286 3.54834 0 0.0 1 0
287 1 58.71 5.31499 6.97226 5.35595 0 0.0 1 0
289 1 58.71 7.00267 7.04988 3.54242 0 0.0 1 0
291 1 58.71 8.84287 6.92491 5.21676 0 0.0 1 0
293 1 58.71 10.5551 7.03675 3.45397 0 0.0 1 0
295 1 58.71 12.2605 7.06674 5.31089 0 0.0 1 0
297 1 58.71 14.1037 7.08459 3.57764 0 0.0 1 0
299 1 58.71 15.8211 7.09573 5.27928 0 0.0 1 0
301 1 58.71 17.5737 6.98981 3.52297 301 -0.240116 1 0
303 1 58.71 19.2478 7.03023 5.29202 303 0.69138 1 0
305 1 58.71 21.0544 7.04163 3.51007 305 0.0246966 1 0
307 1 58.71 22.8458 6.97919 5.30511 307 0.0998734 1 0
309 1 58.71 24.5763 7.01791 3.5493 309 0.709981 1 0
311 1 58.71 26.4169 7.03885 5.26618 311 -0.00707162 1 0
313 1 58.71 28.1813 7.00355 3.44303 313 -0.505669 1 0
315 1 58.71 29.9519 7.07049 5.27715 315 -0.164905 1 0
317 1 58.71 31.6325 7.02034 3.44113 317 0.51883 1 0
319 1 58.71 33.3608 7.01873 5.33164 319 0.555886 1 0
282 1 58.71 1.73793 8.72763 3.49152 0 0.0 1 0
284 1 58.71 35.161 8.82911 5.24883 0 0.0 1 0
321 1 58.71 35.1883 10.5798 3.4793 0 0.0 1 0
323 1 58.71 1.80135 10.5205 5.24895 0 0.0 1 0
286 1 58.71 5.29749 8.80563 3.56996 0 0.0 1 0
288 1 58.71 3.55923 8.79555 5.30706 0 0.0 1 0
325 1 58.71 3.55982 10.5104 3.5026 0 0.0 1 0
327 1 58.71 5.353 10.6042 5.34361 0 0.0 1 0
292 1 58.71 7.04111 8.75371 5.31181 0 0.0 1 0
329 1 58.71 7.05768 10.582 3.56569 0 0.0 1 0
290 1 58.71 8.807 8.81751 3.47932 0 0.0 1 0
296 1 58.71 10.5453 8.7397 5.16557 0 0.0 1 0
331 1 58.71 8.75844 10.6181 5.32801 0 0.0 1 0
333 1 58.71 10.5602 10.5976 3.48781 0 0.0 1 0
294 1 58.71 12.3551 8.82866 3.40795 0 0.0 1 0
335 1 58.71 12.1955 10.5585 5.22412 0 0.0 1 0
298 1 58.71 15.7705 8.78493 3.46153 0 0.0 1 0
300 1 58.71 14.0245 8.82949 5.24481 0 0.0 1 0
337 1 58.71 14.0619 10.5579 3.48422 0 0.0 1 0
339 1 58.71 15.7589 10.6454 5.2168 0 0.0 1 0
304 1 58.71 17.471 8.80692 5.26698 304 0.637383 1 0
341 1 58.71 17.5773 10.5494 3.52918 341 -0.425059 1 0
302 1 58.71 19.2625 8.82326 3.55119 302 0.365463 1 0
308 1 58.71 21.0724 8.71853 5.39697 308 -0.235161 1 0
343 1 58.71 19.3312 10.5135 5.27561 343 -0.127029 1 0
345 1 58.71 21.0935 10.4682 3.51319 345 -0.00835328 1 0
306 1 58.71 22.8128 8.73205 3.52059 306 0.158305 1 0
347 1 58.71 22.9143 10.5422 5.23259 347 -0.812576 1 0
310 1 58.71 26.4405 8.80683 3.48034 310 -0.433859 1 0
312 1 58.71 24.6538 8.77182 5.29912 312 -0.145451 1 0
349 1 58.71 24.6464 10.51 3.61938 349 0.101248 1 0
351 1 58.71 26.3924 10.5653 5.28893 351 0.228838 1 0
316 1 58.71 28.2498 8.81071 5.18427 316 -1.01426 1 0
353 1 58.71 28.1484 10.5787 3.47253 353 -0.0881672 1 0
314 1 58.71 29.9255 8.76041 3.48735 314 -0.0601144 1 0
320 1 58.71 31.6647 8.8283 5.22356 320 0.0423892 1 0
355 1 58.71 29.8869 10.5695 5.1992 355 0.414714 1 0
357 1 58.71 31.6582 10.6429 3.45895 357 0.346871 1 0
318 1 58.71 33.4594 8.74896 3.54348 318 -0.150921 1 0
359 1 58.71 33.4637 10.6406 5.23785 359 -0.743987 1 0
322 1 58.71 1.75589 12.2041 3.53125 0 0.0 1 0
324 1 58.71 35.1783 12.2807 5.27404 0 0.0 1 0
361 1 58.71 35.217 14.0962 3.50452 0 0.0 1 0
363 1 58.71 1.73291 14.0124 5.27763 0 0.0 1 0
326 1 58.71 5.39163 12.2653 3.46507 0 0.0 1 0
328 1 58.71 3.57667 12.2675 5.17866 0 0.0 1 0
365 1 58.71 3.52472 14.0885 3.53505 0 0.0 1 0
367 1 58.71 5.33875 14.051 5.29144 0 0.0 1 0
332 1 58.71 7.02085 12.3358 5.25135 0 0.0 1 0
369 1 58.71 7.0599 14.0896 3.4954 0 0.0 1 0
330 1 58.71 8.79155 12.3329 3.47422 0 0.0 1 0
336 1 58.71 10.5324 12.2996 5.25029 0 0.0 1 0
371 1 58.71 8.83782 14.1 5.32325 0 0.0 1 0
373 1 58.71 10.5159 14.0745 3.52522 0 0.0 1 0
334 1 58.71 12.3102 12.2964 3.50368 0 0.0 1 0
375 1 58.71 12.2954 14.0926 5.32412 0 0.0 1 0
338 1 58.71 15.8405 12.4267 3.47824 0 0.0 1 0
340 1 58.71 14.0618 12.351 5.22037 0 0.0 1 0
377 1 58.71 14.0601 14.1331 3.543 0 0.0 1 0
379 1 58.71 15.8052 14.0247 5.28683 0 0.0 1 0
344 1 58.71 17.5965 12.2993 5.27362 344 0.20691 1 0
381 1 58.71 17.5995 14.0372 3.54043 381 -0.0490949 1 0
342 1 58.71 19.3909 12.2785 3.47377 342 -0.416423 1 0
348 1 58.71 21.0844 12.2562 5.24131 348 0.157957 1 0
383 1 58.71 19.3801 14.1008 5.17799 383 0.176579 1 0
385 1 58.71 21.1068 14.0209 3.4121 385 -0.119658 1 0
346 1 58.71 22.7723 12.2304 3.50693 346 0.908278 1 0
387 1 58.71 22.859 14.1248 5.18761 387 -0.0681022 1 0
350 1 58.71 26.4824 12.3468 3.46278 350 -1.48668 1 0
352 1 58.71 24.6451 12.3202 5.21756 352 -0.361458 1 0
389 1 58.71 24.6053 14.0522 3.5114 389 0.420522 1 0
391 1 58.71 26.3855 14.0365 5.32367 391 -0.107294 1 0
356 1 58.71 28.0641 12.3491 5.17219 356 1.27548 1 0
393 1 58.71 28.0947 14.1138 3.47146 393 1.01816 1 0
354 1 58.71 29.9123 12.2987 3.46121 354 -0.54865 1 0
360 1 58.71 31.6148 12.4168 5.23656 360 1.03081 1 0
395 1 58.71 29.8734 14.1186 5.21556 395 -0.423726 1 0
397 1 58.71 31.5927 14.1284 3.49273 397 0.697039 1 0
358 1 58.71 33.5154 12.3124 3.50503 358 -1.15563 1 0
399 1 58.71 33.424 14.1785 5.25553 399 0.106819 1 0
362 1 58.71 1.75328 15.8758 3.53954 0 0.0 1 0
364 1 58.71 0.0121552 15.9607 5.30847 0 0.0 1 0
366 1 58.71 5.28737 15.8006 3.45377 0 0.0 1 0
368 1 58.71 3.49212 15.8614 5.25168 0 0.0 1 0
372 1 58.71 7.02093 15.8434 5.23233 0 0.0 1 0
370 1 58.71 8.87581 15.8377 3.54407 0 0.0 1 0
376 1 58.71 10.708 15.8367 5.31672 0 0.0 1 0
374 1 58.71 12.3636 15.8704 3.51813 0 0.0 1 0
378 1 58.71 15.8576 15.8727 3.48988 0 0.0 1 0
380 1 58.71 14.0689 15.8441 5.23263 0 0.0 1 0
384 1 58.71 17.6194 15.8198 5.29043 384 -0.450682 1 0
382 1 58.71 19.3128 15.9138 3.44794 382 0.605605 1 0
388 1 58.71 21.1772 15.8197 5.32134 388 -0.606875 1 0
386 1 58.71 22.9214 15.848 3.4366 386 -0.222644 1 0
390 1 58.71 26.3492 15.7715 3.53651 390 0.0442142 1 0
392 1 58.71 24.5912 15.8345 5.26383 392 0.546987 1 0
396 1 58.71 28.1989 15.8177 5.26985 396 -0.475031 1 0
394 1 58.71 29.931 15.8662 3.40467 394 -0.473993 1 0
400 1 58.71 31.5873 15.8109 5.22981 400 0.0881831 1 0
398 1 58.71 33.3729 15.8539 3.49201 398 0.713594 1 0
932 1 58.71 7.08696 12.3104 15.8792 0 0.0 1 0
402 1 58.71 1.77154 1.82533 7.09961 0 0.0 1 0
166 1 58.71 5.22717 15.8763 -0.014456 0 0.0 1 0
406 1 58.71 5.36201 1.73739 7.09337 0 0.0 1 0
605 1 58.71 3.50627 0.0364953 10.5523 0 0.0 1 0
410 1 58.71 8.80197 1.75402 6.97796 0 0.0 1 0
967 1 58.71 5.26092 14.0697 15.8394 0 0.0 1 0
414 1 58.71 12.3376 1.77191 7.09556 0 0.0 1 0
928 1 58.71 3.51275 12.2662 15.8753 0 0.0 1 0
418 1 58.71 15.8393 1.74268 7.0404 0 0.0 1 0
963 1 58.71 1.83707 13.9973 15.8422 0 0.0 1 0
422 1 58.71 19.4176 1.67996 7.0197 422 -0.69709 1 0
924 1 58.71 0.0443587 12.3368 15.771 0 0.0 1 0
426 1 58.71 22.9098 1.77006 7.05058 426 0.212575 1 0
625 1 58.71 21.1506 0.0172294 10.5654 625 0.0379129 1 0
430 1 58.71 26.399 1.70842 7.01055 430 0.0990252 1 0
959 1 58.71 33.4379 10.6135 15.8085 959 0.37617 1 0
434 1 58.71 29.9577 1.77674 7.00899 434 -0.121966 1 0
1089 1 58.71 7.131 7.08273 17.5724 0 0.0 1 0
438 1 58.71 33.3889 1.71762 7.10386 438 0.133146 1 0
441 1 58.71 35.1737 3.58112 7.07057 0 0.0 1 0
442 1 58.71 1.78072 5.28036 7.07886 0 0.0 1 0
445 1 58.71 3.67871 3.58252 7.08417 0 0.0 1 0
446 1 58.71 5.28306 5.32526 7.0815 0 0.0 1 0
449 1 58.71 7.02438 3.51233 7.12255 0 0.0 1 0
450 1 58.71 8.79505 5.21508 7.1818 0 0.0 1 0
453 1 58.71 10.562 3.48225 7.01807 0 0.0 1 0
454 1 58.71 12.2713 5.24423 7.05641 0 0.0 1 0
457 1 58.71 14.0459 3.53717 7.06636 0 0.0 1 0
458 1 58.71 15.8545 5.33913 7.09452 0 0.0 1 0
461 1 58.71 17.5943 3.4483 7.13346 461 0.182353 1 0
462 1 58.71 19.29 5.28816 7.04048 462 0.344082 1 0
465 1 58.71 21.1167 3.58592 7.05392 465 0.202994 1 0
466 1 58.71 22.8748 5.30339 7.04878 466 0.331869 1 0
469 1 58.71 24.6752 3.50135 7.03524 469 0.00884548 1 0
470 1 58.71 26.4626 5.30311 7.02769 470 -0.61228 1 0
473 1 58.71 28.1236 3.41786 6.96211 473 0.0321358 1 0
474 1 58.71 29.8623 5.16868 7.08216 474 0.0831182 1 0
477 1 58.71 31.7565 3.55585 7.0718 477 -0.764547 1 0
478 1 58.71 33.4597 5.28422 7.01388 478 -0.350401 1 0
481 1 58.71 0.0190132 6.92745 7.02053 0 0.0 1 0
485 1 58.71 3.52923 6.9578 7.04618 0 0.0 1 0
489 1 58.71 7.07877 7.00341 6.96658 0 0.0 1 0
493 1 58.71 10.6299 7.01957 7.09857 0 0.0 1 0
497 1 58.71 14.0742 7.06134 7.05872 0 0.0 1 0
501 1 58.71 17.6238 7.04031 7.05276 501 -0.431319 1 0
505 1 58.71 21.078 6.95954 6.99312 505 -0.283583 1 0
509 1 58.71 24.6132 7.05199 7.01586 509 0.455995 1 0
513 1 58.71 28.2379 7.09068 6.98533 513 -0.475068 1 0
517 1 58.71 31.6047 7.05759 7.06825 517 0.0714879 1 0
482 1 58.71 1.77398 8.81062 7.04356 0 0.0 1 0
521 1 58.71 0.0633729 10.5568 7.03311 0 0.0 1 0
486 1 58.71 5.34843 8.81719 7.11225 0 0.0 1 0
525 1 58.71 3.57565 10.5461 7.03827 0 0.0 1 0
529 1 58.71 7.03769 10.5092 7.08211 0 0.0 1 0
490 1 58.71 8.89784 8.79756 7.01622 0 0.0 1 0
533 1 58.71 10.5982 10.5601 6.99709 0 0.0 1 0
494 1 58.71 12.3197 8.79642 7.05363 0 0.0 1 0
498 1 58.71 15.8522 8.79237 7.0254 0 0.0 1 0
537 1 58.71 14.0523 10.5 7.02596 0 0.0 1 0
541 1 58.71 17.5209 10.5449 6.99196 541 0.314498 1 0
502 1 58.71 19.2393 8.82568 7.06575 502 0.662361 1 0
545 1 58.71 21.055 10.5413 7.01135 545 0.650473 1 0
506 1 58.71 22.8333 8.7585 6.9864 506 0.752761 1 0
510 1 58.71 26.428 8.85736 7.00926 510 -0.243937 1 0
549 1 58.71 24.606 10.546 7.01149 549 -0.13321 1 0
553 1 58.71 28.1689 10.5529 6.98407 553 -0.110794 1 0
514 1 58.71 29.8806 8.89396 7.0281 514 0.493787 1 0
557 1 58.71 31.6905 10.529 7.03818 557 -0.0921494 1 0
518 1 58.71 33.3651 8.78395 7.02359 518 0.648802 1 0
522 1 58.71 1.81781 12.3134 7.08854 0 0.0 1 0
561 1 58.71 35.1914 14.1977 7.0468 0 0.0 1 0
526 1 58.71 5.30255 12.3012 7.05962 0 0.0 1 0
565 1 58.71 3.55529 14.0944 7.00999 0 0.0 1 0
569 1 58.71 7.07714 14.0927 7.06913 0 0.0 1 0
530 1 58.71 8.8849 12.2938 7.06191 0 0.0 1 0
573 1 58.71 10.5912 14.0169 7.06627 0 0.0 1 0
534 1 58.71 12.3362 12.3224 7.01867 0 0.0 1 0
538 1 58.71 15.8669 12.2832 7.06404 0 0.0 1 0
577 1 58.71 14.0767 14.1002 7.02993 0 0.0 1 0
581 1 58.71 17.579 14.044 6.98812 581 0.326019 1 0
542 1 58.71 19.3474 12.2485 7.03504 542 -0.210946 1 0
585 1 58.71 21.1008 13.9981 7.04288 585 0.00229385 1 0
546 1 58.71 22.8113 12.3634 7.10594 546 0.601024 1 0
550 1 58.71 26.3792 12.2815 7.00735 550 0.233118 1 0
589 1 58.71 24.6742 14.0656 7.05992 589 -0.778486 1 0
593 1 58.71 28.1834 14.1099 7.03717 593 -0.43087 1 0
554 1 58.71 29.9792 12.3839 6.93705 554 -1.06864 1 0
597 1 58.71 31.5352 14.1456 7.0081 597 1.37123 1 0
558 1 58.71 33.5119 12.3644 7.00353 558 -0.671175 1 0
562 1 58.71 1.8037 15.8195 7.01224 0 0.0 1 0
566 1 58.71 5.27429 15.9136 6.96056 0 0.0 1 0
570 1 58.71 8.83474 15.9262 6.99091 0 0.0 1 0
574 1 58.71 12.3918 15.8304 6.9951 0 0.0 1 0
578 1 58.71 15.8151 15.7873 7.01938 0 0.0 1 0
582 1 58.71 19.356 15.7466 7.09644 582 0.204014 1 0
586 1 58.71 22.8602 15.8708 6.99384 586 0.408291 1 0
590 1 58.71 26.4284 15.8818 7.00365 590 -0.231959 1 0
594 1 58.71 29.9087 15.9392 7.08107 594 -0.220026 1 0
598 1 58.71 33.3326 15.9416 6.95129 598 0.407304 1 0
955 1 58.71 29.9981 10.6355 15.7736 955 -0.318355 1 0
404 1 58.71 35.1232 1.71332 8.87005 0 0.0 1 0
920 1 58.71 31.6794 8.87215 15.7672 920 0.377876 1 0
602 1 58.71 1.81195 1.80044 10.5745 0 0.0 1 0
633 1 58.71 28.0901 0.00503067 10.6526 633 0.184388 1 0
408 1 58.71 3.56371 1.69405 8.82262 0 0.0 1 0
916 1 58.71 28.1872 8.79106 15.7981 916 -0.0933816 1 0
606 1 58.71 5.40282 1.73104 10.5581 0 0.0 1 0
412 1 58.71 7.1012 1.67003 8.8208 0 0.0 1 0
951 1 58.71 26.4408 10.621 15.8114 951 0.566605 1 0
603 1 58.71 1.75768 0.0325593 12.3679 0 0.0 1 0
416 1 58.71 10.612 1.7987 8.8192 0 0.0 1 0
610 1 58.71 8.75682 1.6754 10.6002 0 0.0 1 0
211 1 58.71 8.80989 0.00449986 5.23506 0 0.0 1 0
912 1 58.71 24.7324 8.90528 15.7955 912 -0.760712 1 0
614 1 58.71 12.3272 1.73088 10.6659 0 0.0 1 0
1085 1 58.71 3.51103 7.08456 17.6188 0 0.0 1 0
420 1 58.71 14.106 1.78575 8.84508 0 0.0 1 0
947 1 58.71 22.9847 10.7018 15.8195 947 -0.501019 1 0
618 1 58.71 15.8768 1.71895 10.6622 0 0.0 1 0
424 1 58.71 17.5662 1.77044 8.8491 424 0.28127 1 0
629 1 58.71 24.6782 0.00962231 10.5448 629 -0.126595 1 0
943 1 58.71 19.3897 10.6564 15.8194 943 -0.048485 1 0
428 1 58.71 21.1582 1.7426 8.71701 428 0.278617 1 0
622 1 58.71 19.3928 1.83186 10.627 622 -0.0976899 1 0
1081 1 58.71 35.1133 7.06478 17.6224 0 0.0 1 0
190 1 58.71 26.28 15.9006 0.0127275 190 1.01649 1 0
626 1 58.71 22.9689 1.70746 10.5453 626 -0.719394 1 0
1077 1 58.71 31.6425 3.60131 17.4687 1077 0.335353 1 0
432 1 58.71 24.6393 1.71679 8.80272 432 0.272476 1 0
1001 1 58.71 35.1931 0.00886475 17.5486 0 0.0 1 0
630 1 58.71 26.3976 1.77682 10.596 630 -0.0289054 1 0
436 1 58.71 28.1706 1.7364 8.804 436 -0.012304 1 0
908 1 58.71 21.1336 8.87326 15.9061 908 0.572776 1 0
904 1 58.71 17.6738 8.82429 15.828 904 -0.307451 1 0
440 1 58.71 31.68 1.71732 8.88615 440 -0.262459 1 0
634 1 58.71 29.8835 1.73097 10.6404 634 0.143005 1 0
2029 1 58.71 24.6457 17.5746 -0.0591818 2029 -0.504108 1 0
939 1 58.71 15.8244 10.6578 15.7989 0 0.0 1 0
638 1 58.71 33.4499 1.83154 10.5728 638 -0.202465 1 0
443 1 58.71 1.8673 3.52165 8.86632 0 0.0 1 0
444 1 58.71 0.00254704 5.32248 8.88248 0 0.0 1 0
641 1 58.71 0.0778976 3.58847 10.5854 0 0.0 1 0
642 1 58.71 1.82246 5.29277 10.6141 0 0.0 1 0
447 1 58.71 5.31781 3.55255 8.88631 0 0.0 1 0
448 1 58.71 3.52284 5.28046 8.77894 0 0.0 1 0
645 1 58.71 3.62593 3.53258 10.6107 0 0.0 1 0
646 1 58.71 5.33069 5.245 10.5613 0 0.0 1 0
452 1 58.71 7.04285 5.24432 8.8696 0 0.0 1 0
649 1 58.71 7.08532 3.45471 10.5398 0 0.0 1 0
451 1 58.71 8.85292 3.44905 8.81611 0 0.0 1 0
456 1 58.71 10.6795 5.23285 8.85932 0 0.0 1 0
650 1 58.71 8.81373 5.25669 10.5914 0 0.0 1 0
653 1 58.71 10.5352 3.46175 10.665 0 0.0 1 0
455 1 58.71 12.3438 3.50282 8.89341 0 0.0 1 0
654 1 58.71 12.3125 5.2788 10.6561 0 0.0 1 0
459 1 58.71 15.82 3.54187 8.82085 0 0.0 1 0
460 1 58.71 14.0463 5.30985 8.79514 0 0.0 1 0
657 1 58.71 14.0695 3.53633 10.6538 0 0.0 1 0
658 1 58.71 15.9214 5.31999 10.5898 0 0.0 1 0
464 1 58.71 17.6568 5.33888 8.78902 464 -0.428527 1 0
661 1 58.71 17.6601 3.51065 10.5851 661 -0.640075 1 0
463 1 58.71 19.3901 3.53281 8.80323 463 -0.188105 1 0
468 1 58.71 21.0903 5.25917 8.78264 468 0.327056 1 0
662 1 58.71 19.3504 5.28862 10.6287 662 0.436083 1 0
665 1 58.71 21.1788 3.47531 10.5391 665 0.126388 1 0
467 1 58.71 22.9962 3.50628 8.7776 467 -1.25062 1 0
666 1 58.71 22.8492 5.32882 10.6356 666 0.481298 1 0
471 1 58.71 26.4021 3.49138 8.76894 471 0.00754199 1 0
472 1 58.71 24.6614 5.29603 8.77239 472 0.0153172 1 0
669 1 58.71 24.6244 3.54655 10.4708 669 0.18038 1 0
670 1 58.71 26.4241 5.2505 10.504 670 -0.441758 1 0
476 1 58.71 28.0609 5.21805 8.81772 476 1.21901 1 0
673 1 58.71 28.158 3.52078 10.6736 673 -0.120962 1 0
475 1 58.71 29.9082 3.51203 8.79497 475 0.00145056 1 0
480 1 58.71 31.6673 5.33284 8.79179 480 -0.100522 1 0
674 1 58.71 29.7945 5.29494 10.5912 674 0.876781 1 0
677 1 58.71 31.6958 3.55317 10.5719 677 -0.934615 1 0
479 1 58.71 33.405 3.49208 8.84483 479 0.476936 1 0
678 1 58.71 33.4285 5.20524 10.6024 678 0.223055 1 0
483 1 58.71 1.76424 7.05651 8.8289 0 0.0 1 0
681 1 58.71 0.122138 6.96729 10.6411 0 0.0 1 0
487 1 58.71 5.24262 7.02734 8.75211 0 0.0 1 0
685 1 58.71 3.60184 7.06155 10.452 0 0.0 1 0
689 1 58.71 7.09137 7.05853 10.4571 0 0.0 1 0
491 1 58.71 8.77522 7.06203 8.81482 0 0.0 1 0
693 1 58.71 10.6127 7.03744 10.6214 0 0.0 1 0
495 1 58.71 12.3531 7.01725 8.80536 0 0.0 1 0
499 1 58.71 15.8751 7.10052 8.78015 0 0.0 1 0
697 1 58.71 14.0495 6.99292 10.5536 0 0.0 1 0
701 1 58.71 17.6624 7.06147 10.591 701 -0.488232 1 0
503 1 58.71 19.3892 7.05653 8.86613 503 0.14585 1 0
705 1 58.71 21.1261 7.03699 10.6411 705 0.123213 1 0
507 1 58.71 22.8853 6.99499 8.80627 507 -0.108011 1 0
511 1 58.71 26.4124 7.01943 8.76455 511 -0.174865 1 0
709 1 58.71 24.7169 7.06138 10.5473 709 -0.435391 1 0
713 1 58.71 28.0631 7.04868 10.567 713 0.688107 1 0
515 1 58.71 29.8764 7.10786 8.82559 515 -0.388484 1 0
717 1 58.71 31.6819 6.98261 10.5452 717 -0.365888 1 0