ITEM: TIMESTEP
900
ITEM: NUMBER OF ATOMS
4000
ITEM: BOX BOUNDS pp pp pp
0.0 35.2
0.0 35.2
0.0 35.2
ITEM: ATOMS id type mass x y z c_1[1] c_1[2] structure_types fault_types 
1000 1 58.71 31.5994 15.868 15.7921 1000 0.378877 1 0
2025 1 58.71 21.1859 17.5608 0.10627 2025 -0.563406 1 0
996 1 58.71 28.0963 15.9316 15.8869 996 0.265354 1 0
4 1 58.71 0.115094 1.75294 1.80551 0 0.0 1 0
992 1 58.71 24.6538 15.8817 15.8587 992 -0.458889 1 0
27 1 58.71 22.9249 0.0523619 1.68542 27 0.278988 1 0
988 1 58.71 20.9492 15.8499 15.8155 988 1.51177 1 0
8 1 58.71 3.46487 1.73834 1.81807 0 0.0 1 0
984 1 58.71 17.621 15.8618 15.8829 984 -0.44713 1 0
12 1 58.71 6.91885 1.70828 1.70752 0 0.0 1 0
1173 1 58.71 10.6504 14.0128 17.5265 0 0.0 1 0
980 1 58.71 14.0654 15.7048 15.7683 0 0.0 1 0
976 1 58.71 10.6236 15.97 15.7074 0 0.0 1 0
16 1 58.71 10.6274 1.79176 1.7624 0 0.0 1 0
73 1 58.71 28.1343 3.51778 0.0271787 73 0.0536221 1 0
972 1 58.71 7.12359 15.9514 15.876 0 0.0 1 0
114 1 58.71 29.9522 8.7956 0.0315415 114 -0.230161 1 0
138 1 58.71 15.8354 12.44 -0.00820314 0 0.0 1 0
968 1 58.71 3.53858 15.7196 15.9465 0 0.0 1 0
20 1 58.71 14.0968 1.83147 1.7624 0 0.0 1 0
964 1 58.71 35.1498 15.8634 15.8444 0 0.0 1 0
24 1 58.71 17.5364 1.86416 1.67222 24 0.363065 1 0
2225 1 58.71 21.121 17.5468 3.60462 2225 -0.103324 1 0
999 1 58.71 33.4193 13.9827 15.7417 999 0.59989 1 0
995 1 58.71 29.805 14.1325 15.735 995 0.556614 1 0
28 1 58.71 21.1855 1.68777 1.65004 28 0.0856301 1 0
130 1 58.71 8.75112 12.4617 0.0956849 0 0.0 1 0
141 1 58.71 17.503 10.6267 0.133626 141 0.242419 1 0
121 1 58.71 35.1728 10.565 0.0633332 0 0.0 1 0
38 1 58.71 33.5733 1.61054 0.0761073 38 -0.640748 1 0
960 1 58.71 31.5167 12.394 15.7755 960 1.12166 1 0
32 1 58.71 24.6173 1.72847 1.71948 32 0.336231 1 0
956 1 58.71 28.1296 12.2847 15.8212 956 0.126326 1 0
36 1 58.71 28.1053 1.79014 1.74981 36 0.170805 1 0
2203 1 58.71 1.69293 17.605 5.36225 0 0.0 1 0
1065 1 58.71 20.9847 3.44414 17.537 1065 0.990511 1 0
1005 1 58.71 3.58427 0.0140221 17.5644 0 0.0 1 0
40 1 58.71 31.7326 1.85466 1.80247 40 0.138148 1 0
2423 1 58.71 19.3868 17.601 8.90112 2423 -0.594192 1 0
2831 1 58.71 26.2718 17.5824 15.8519 2831 0.794909 1 0
3001 1 58.71 0.0532152 17.4802 17.5118 0 0.0 1 0
2615 1 58.71 12.3303 17.4707 12.3943 0 0.0 1 0
43 1 58.71 1.78862 3.49626 1.76823 0 0.0 1 0
44 1 58.71 0.0987748 5.23219 1.79279 0 0.0 1 0
185 1 58.71 21.1933 14.1245 0.055716 185 -0.432228 1 0
86 1 58.71 5.30416 8.95639 0.0065894 0 0.0 1 0
47 1 58.71 5.25142 3.56148 1.94163 0 0.0 1 0
48 1 58.71 3.50768 5.20804 1.75203 0 0.0 1 0
90 1 58.71 8.70382 8.90518 0.0445792 0 0.0 1 0
52 1 58.71 7.00804 5.37428 1.84581 0 0.0 1 0
2627 1 58.71 22.9016 17.5709 12.4279 2627 -0.646211 1 0
51 1 58.71 8.86508 3.58206 1.93337 0 0.0 1 0
11 1 58.71 8.83904 0.0467665 1.71992 0 0.0 1 0
56 1 58.71 10.7402 5.24081 1.86069 0 0.0 1 0
1086 1 58.71 5.2684 8.68604 17.5339 0 0.0 1 0
55 1 58.71 12.3238 3.61003 1.71085 0 0.0 1 0
166 1 58.71 5.20682 15.8882 0.100354 0 0.0 1 0
2837 1 58.71 31.8381 17.5545 14.0754 2837 -1.08988 1 0
59 1 58.71 15.7414 3.72082 1.69566 0 0.0 1 0
60 1 58.71 13.9596 5.30266 1.84974 0 0.0 1 0
409 1 58.71 7.16292 0.0588486 6.9691 0 0.0 1 0
64 1 58.71 17.6707 5.43905 1.726 64 -0.433691 1 0
1193 1 58.71 28.0914 14.1076 17.4712 1193 0.45214 1 0
63 1 58.71 19.3693 3.41201 1.74701 63 0.0974757 1 0
805 1 58.71 3.57744 0.0114683 14.068 0 0.0 1 0
68 1 58.71 21.0472 5.24893 1.73932 68 0.439723 1 0
93 1 58.71 10.4816 7.12567 0.0764892 0 0.0 1 0
67 1 58.71 22.8855 3.59878 1.69673 67 0.0714332 1 0
1130 1 58.71 8.84814 12.3916 17.5454 0 0.0 1 0
23 1 58.71 19.4281 0.0867465 1.80315 23 -0.463281 1 0
71 1 58.71 26.2878 3.49729 1.77337 71 0.257111 1 0
72 1 58.71 24.6541 5.36348 1.69805 72 -0.567312 1 0
1153 1 58.71 28.1026 10.6677 17.5019 1153 0.57662 1 0
76 1 58.71 28.1777 5.23733 1.81885 76 -0.51358 1 0
2431 1 58.71 26.2745 17.5079 8.78378 2431 0.562055 1 0
75 1 58.71 29.8997 3.57587 1.7563 75 0.521047 1 0
21 1 58.71 17.5986 0.126446 0.00955359 21 -0.0432503 1 0
80 1 58.71 31.8278 5.29776 1.81824 80 -0.856545 1 0
53 1 58.71 10.5898 3.50179 0.0953665 0 0.0 1 0
79 1 58.71 33.5764 3.53051 1.76299 79 -0.228979 1 0
2 1 58.71 1.68572 1.72425 0.0155552 0 0.0 1 0
83 1 58.71 1.77337 7.01738 1.83126 0 0.0 1 0
803 1 58.71 1.7496 0.0469341 15.8834 0 0.0 1 0
87 1 58.71 5.18335 7.17476 1.72567 0 0.0 1 0
74 1 58.71 29.9442 5.19414 0.0108281 74 0.192901 1 0
91 1 58.71 8.77414 7.14848 1.89855 0 0.0 1 0
182 1 58.71 19.4114 15.8304 0.16231 182 -0.655913 1 0
95 1 58.71 12.2993 7.17236 1.76196 0 0.0 1 0
2617 1 58.71 14.0151 17.4475 10.5363 0 0.0 1 0
99 1 58.71 15.7949 7.15613 1.78951 0 0.0 1 0
1129 1 58.71 7.15255 10.5769 17.4219 0 0.0 1 0
103 1 58.71 19.3598 7.13904 1.7812 103 -0.128804 1 0
411 1 58.71 8.81275 0.0674417 8.77197 0 0.0 1 0
107 1 58.71 22.7366 7.13938 1.67263 107 0.292251 1 0
1197 1 58.71 31.6246 14.1453 17.4569 1197 0.363463 1 0
111 1 58.71 26.4556 7.05492 1.61969 111 -0.257191 1 0
1161 1 58.71 0.101502 13.9511 17.4614 0 0.0 1 0
115 1 58.71 29.9229 7.07087 1.63078 115 0.0968686 1 0
429 1 58.71 24.7475 -0.00226047 7.02749 429 -1.44629 1 0
119 1 58.71 33.3878 7.13675 1.80545 119 0.567734 1 0
2601 1 58.71 0.02989 17.5445 10.6332 0 0.0 1 0
84 1 58.71 35.144 8.74046 1.68492 0 0.0 1 0
829 1 58.71 24.573 0.0155136 14.0284 829 0.0127107 1 0
123 1 58.71 1.67961 10.6158 1.66468 0 0.0 1 0
161 1 58.71 35.14 14.1017 0.0720514 0 0.0 1 0
88 1 58.71 3.37717 8.8842 1.73682 0 0.0 1 0
118 1 58.71 33.3468 8.72722 0.0165832 118 0.874232 1 0
127 1 58.71 5.20577 10.6143 1.77746 0 0.0 1 0
92 1 58.71 6.95236 8.81026 1.78516 0 0.0 1 0
54 1 58.71 12.3005 5.40738 -0.00650374 0 0.0 1 0
1041 1 58.71 34.982 3.44751 17.5769 0 0.0 1 0
96 1 58.71 10.4852 8.96833 1.76163 0 0.0 1 0
131 1 58.71 8.70356 10.5826 1.71523 0 0.0 1 0
1118 1 58.71 33.4569 8.75291 17.5879 1118 0.230667 1 0
50 1 58.71 8.76416 5.25921 0.140418 0 0.0 1 0
135 1 58.71 12.3767 10.6392 1.78133 0 0.0 1 0
1058 1 58.71 15.8853 5.18276 17.5335 0 0.0 1 0
100 1 58.71 14.0714 8.84369 1.73324 0 0.0 1 0
1045 1 58.71 3.44219 3.60016 17.544 0 0.0 1 0
139 1 58.71 15.7562 10.687 1.82772 0 0.0 1 0
104 1 58.71 17.5348 8.82127 1.75993 104 -0.227532 1 0
2411 1 58.71 8.79786 17.62 8.78699 0 0.0 1 0
34 1 58.71 30.0523 1.81997 0.0988698 34 -1.27107 1 0
108 1 58.71 21.0283 8.85854 1.72199 108 0.257798 1 0
143 1 58.71 19.2236 10.6203 1.86149 143 0.42277 1 0
2819 1 58.71 15.7714 17.4795 15.8237 0 0.0 1 0
193 1 58.71 28.1804 14.0719 0.151317 193 -0.125285 1 0
147 1 58.71 22.81 10.5121 1.61702 147 0.0868258 1 0
1170 1 58.71 8.85003 15.8018 17.5244 0 0.0 1 0
112 1 58.71 24.5369 8.76503 1.71572 112 0.653279 1 0
217 1 58.71 14.1538 0.00322108 3.51198 0 0.0 1 0
151 1 58.71 26.3265 10.583 1.74497 151 0.330979 1 0
116 1 58.71 28.0402 8.84179 1.64518 116 0.810667 1 0
85 1 58.71 3.57633 6.98201 0.095709 0 0.0 1 0
170 1 58.71 8.75824 15.8679 0.161862 0 0.0 1 0
120 1 58.71 31.7341 8.85843 1.72356 120 -1.30851 1 0
155 1 58.71 29.8434 10.7844 1.66466 155 0.235968 1 0
2821 1 58.71 17.5794 17.5652 14.0119 2821 0.0569699 1 0
1166 1 58.71 5.30142 15.7897 17.5264 0 0.0 1 0
159 1 58.71 33.4182 10.4564 1.89231 159 0.731582 1 0
2635 1 58.71 29.8746 17.557 12.3289 2635 0.123165 1 0
124 1 58.71 0.000745013 12.3867 1.86634 0 0.0 1 0
2007 1 58.71 5.13127 17.5922 1.7755 0 0.0 1 0
163 1 58.71 1.77359 14.1294 1.81013 0 0.0 1 0
81 1 58.71 0.00309323 6.98773 -0.0215071 0 0.0 1 0
128 1 58.71 3.50751 12.2846 1.69761 0 0.0 1 0
2621 1 58.71 17.595 17.4618 10.5788 2621 0.121903 1 0
167 1 58.71 5.26403 14.0896 1.78135 0 0.0 1 0
132 1 58.71 7.06585 12.3697 1.72436 0 0.0 1 0
158 1 58.71 33.4927 12.3333 0.0997347 158 -0.869912 1 0
1046 1 58.71 5.26443 5.27659 17.5483 0 0.0 1 0
136 1 58.71 10.5925 12.421 1.71453 0 0.0 1 0
171 1 58.71 8.77514 14.2261 1.91426 0 0.0 1 0
1085 1 58.71 3.49685 6.94848 17.4943 0 0.0 1 0
235 1 58.71 29.9746 0.0472619 5.21907 235 -0.305447 1 0
175 1 58.71 12.2991 14.1154 1.80047 0 0.0 1 0
207 1 58.71 5.24452 0.124339 5.2528 0 0.0 1 0
140 1 58.71 14.0637 12.4287 1.74189 0 0.0 1 0
1110 1 58.71 26.5204 8.75215 17.5481 1110 -0.0450472 1 0
179 1 58.71 15.7869 14.1698 1.78326 0 0.0 1 0
144 1 58.71 17.5482 12.4225 1.76877 144 0.350406 1 0
2421 1 58.71 17.5088 17.5379 7.03331 2421 0.370807 1 0
433 1 58.71 28.1631 0.0847423 7.09794 433 0.425763 1 0
148 1 58.71 20.9636 12.2626 1.78975 148 1.00007 1 0
183 1 58.71 19.3689 14.0802 1.82599 183 -0.201876 1 0
1186 1 58.71 22.8434 15.8244 17.464 1186 0.0824916 1 0
1157 1 58.71 31.7159 10.6268 17.5691 1157 -0.02975 1 0
187 1 58.71 22.7844 13.9937 1.8349 187 0.774096 1 0
2027 1 58.71 22.8981 17.5918 1.8435 2027 0.13987 1 0
152 1 58.71 24.6045 12.2485 1.87935 152 -0.186533 1 0
1133 1 58.71 10.6297 10.5181 17.6026 0 0.0 1 0
191 1 58.71 26.4144 14.1507 1.78052 191 -0.118718 1 0
156 1 58.71 28.1507 12.3279 1.83187 156 -0.39847 1 0
227 1 58.71 22.8263 0.121774 5.30215 227 0.266482 1 0
2227 1 58.71 22.8181 17.5286 5.41183 2227 0.184322 1 0
160 1 58.71 31.6549 12.3538 1.76989 160 0.650347 1 0
195 1 58.71 29.9206 14.0877 1.86273 195 0.455721 1 0
603 1 58.71 1.75711 0.0353485 12.3881 0 0.0 1 0
1154 1 58.71 29.9607 12.3996 17.5049 1154 -0.722332 1 0
199 1 58.71 33.461 14.0928 1.82754 199 -0.912106 1 0
819 1 58.71 15.8611 -0.00865774 15.8459 0 0.0 1 0
164 1 58.71 35.088 15.7969 1.85547 0 0.0 1 0
45 1 58.71 3.55162 3.5553 0.114625 0 0.0 1 0
168 1 58.71 3.48011 15.846 1.86326 0 0.0 1 0
172 1 58.71 7.03919 15.9347 1.78486 0 0.0 1 0
35 1 58.71 29.9266 0.0154205 1.72919 35 -0.168978 1 0
176 1 58.71 10.631 15.9799 1.79515 0 0.0 1 0
1169 1 58.71 7.01513 14.1528 17.4997 0 0.0 1 0
1034 1 58.71 29.8543 1.88943 17.5873 1034 0.123991 1 0
180 1 58.71 14.0909 15.84 1.74534 0 0.0 1 0
184 1 58.71 17.5392 15.8198 1.80532 184 0.371688 1 0
1050 1 58.71 8.78109 5.29647 17.5627 0 0.0 1 0
188 1 58.71 21.1084 15.8391 1.75649 188 1.26218 1 0
2023 1 58.71 19.3622 17.4507 1.74546 2023 -0.545622 1 0
1082 1 58.71 1.76031 8.72179 17.4876 0 0.0 1 0
192 1 58.71 24.6308 15.8072 1.74383 192 -0.480313 1 0
196 1 58.71 28.2698 15.8896 1.87399 196 -0.730988 1 0
2223 1 58.71 19.2031 17.4833 5.29137 2223 0.872184 1 0
200 1 58.71 31.6616 15.8313 1.75681 200 0.66672 1 0
895 1 58.71 12.3249 7.04827 15.7192 0 0.0 1 0
991 1 58.71 26.3392 14.1825 15.8024 991 0.529285 1 0
202 1 58.71 1.71702 1.70011 3.51861 0 0.0 1 0
173 1 58.71 10.4341 14.1475 0.0659683 0 0.0 1 0
204 1 58.71 0.0591803 1.66107 5.35447 0 0.0 1 0
952 1 58.71 24.6715 12.4069 15.9299 952 -0.159665 1 0
206 1 58.71 5.17511 1.69883 3.57241 0 0.0 1 0
987 1 58.71 22.8823 14.0713 15.9328 987 -0.0490077 1 0
208 1 58.71 3.44182 1.76369 5.26464 0 0.0 1 0
983 1 58.71 19.2531 14.1356 15.8858 983 1.2601 1 0
212 1 58.71 6.9675 1.77815 5.21395 0 0.0 1 0
210 1 58.71 8.79099 1.61762 3.53503 0 0.0 1 0
948 1 58.71 21.1667 12.3425 15.8771 948 -0.848547 1 0
122 1 58.71 1.80068 12.5288 0.0383432 0 0.0 1 0
216 1 58.71 10.6156 1.64562 5.31741 0 0.0 1 0
214 1 58.71 12.3064 1.72876 3.53382 0 0.0 1 0
944 1 58.71 17.6215 12.3695 15.8088 944 -0.427572 1 0
146 1 58.71 22.9146 12.3223 0.06055 146 -0.512056 1 0
218 1 58.71 15.9477 1.73434 3.48343 0 0.0 1 0
169 1 58.71 6.96159 14.1253 0.160725 0 0.0 1 0
220 1 58.71 14.1751 1.70116 5.16767 0 0.0 1 0
979 1 58.71 15.8335 14.1649 15.9603 0 0.0 1 0
224 1 58.71 17.701 1.76963 5.18398 224 -0.0334928 1 0
222 1 58.71 19.4775 1.75742 3.492 222 -0.87774 1 0
940 1 58.71 14.1818 12.2768 15.9266 0 0.0 1 0
229 1 58.71 24.6029 0.0513656 3.55507 229 -0.0588225 1 0
228 1 58.71 21.1276 1.83312 5.24433 228 -0.0525603 1 0
226 1 58.71 22.8941 1.86192 3.51094 226 0.0172254 1 0
975 1 58.71 12.3875 13.9473 15.8002 0 0.0 1 0
3017 1 58.71 14.1268 17.5704 17.5395 0 0.0 1 0
230 1 58.71 26.3429 1.76558 3.51607 230 -0.502149 1 0
2221 1 58.71 17.4523 17.5053 3.63969 2221 1.05545 1 0
232 1 58.71 24.6572 1.72702 5.31123 232 -0.398612 1 0
2229 1 58.71 24.638 17.5786 3.65033 2229 0.0897284 1 0
236 1 58.71 28.0809 1.87189 5.30632 236 0.349786 1 0
234 1 58.71 29.75 1.85213 3.51488 234 1.85789 1 0
971 1 58.71 8.93162 14.0651 15.8424 0 0.0 1 0
1174 1 58.71 12.4009 15.8633 17.514 0 0.0 1 0
240 1 58.71 31.7253 1.78675 5.31463 240 -0.246012 1 0
238 1 58.71 33.5651 1.73335 3.51265 238 -0.404766 1 0
936 1 58.71 10.5822 12.3365 15.8226 0 0.0 1 0
241 1 58.71 0.0279728 3.55172 3.627 0 0.0 1 0
242 1 58.71 1.67785 5.28373 3.5583 0 0.0 1 0
243 1 58.71 1.73451 3.49329 5.34888 0 0.0 1 0
244 1 58.71 35.2049 5.34817 5.34619 0 0.0 1 0
245 1 58.71 3.45698 3.52077 3.65916 0 0.0 1 0
246 1 58.71 5.23569 5.35148 3.49436 0 0.0 1 0
247 1 58.71 5.23949 3.66616 5.32752 0 0.0 1 0
248 1 58.71 3.44757 5.30291 5.26602 0 0.0 1 0
249 1 58.71 6.97694 3.54056 3.52065 0 0.0 1 0
252 1 58.71 7.08827 5.23537 5.2704 0 0.0 1 0
250 1 58.71 8.88328 5.33048 3.47678 0 0.0 1 0
251 1 58.71 8.90869 3.44369 5.12438 0 0.0 1 0
253 1 58.71 10.6608 3.50472 3.54283 0 0.0 1 0
256 1 58.71 10.5835 5.347 5.2705 0 0.0 1 0
254 1 58.71 12.3588 5.24926 3.57958 0 0.0 1 0
255 1 58.71 12.3816 3.58128 5.30943 0 0.0 1 0
257 1 58.71 14.1222 3.55277 3.61783 0 0.0 1 0
258 1 58.71 15.9431 5.3526 3.61195 0 0.0 1 0
259 1 58.71 16.0062 3.44999 5.18259 0 0.0 1 0
260 1 58.71 14.1519 5.30656 5.24748 0 0.0 1 0
261 1 58.71 17.5785 3.57797 3.3734 261 0.681042 1 0
264 1 58.71 17.7596 5.27861 5.28437 264 -0.935354 1 0
262 1 58.71 19.4048 5.28374 3.56711 262 -0.480059 1 0
263 1 58.71 19.4265 3.53623 5.2943 263 -0.194627 1 0
265 1 58.71 21.1523 3.55882 3.41305 265 -0.132127 1 0
268 1 58.71 21.1244 5.29436 5.27619 268 0.383836 1 0
266 1 58.71 22.8516 5.33065 3.53645 266 -0.244991 1 0
267 1 58.71 22.8518 3.47225 5.24824 267 0.185827 1 0
269 1 58.71 24.6109 3.63279 3.52657 269 -0.25289 1 0
270 1 58.71 26.346 5.28117 3.42305 270 0.369502 1 0
271 1 58.71 26.2925 3.62812 5.28997 271 0.108867 1 0
272 1 58.71 24.542 5.38865 5.28385 272 0.0205416 1 0
273 1 58.71 27.9945 3.41405 3.50491 273 0.719567 1 0
276 1 58.71 28.0319 5.28184 5.3114 276 0.568895 1 0
274 1 58.71 29.8707 5.42677 3.53775 274 0.348471 1 0
275 1 58.71 29.9199 3.55695 5.29928 275 -0.662174 1 0
277 1 58.71 31.7142 3.46094 3.55877 277 -0.160687 1 0
280 1 58.71 31.6233 5.18265 5.30116 280 0.725015 1 0
278 1 58.71 33.4732 5.2623 3.69395 278 -0.471412 1 0
279 1 58.71 33.4238 3.40135 5.35681 279 0.86294 1 0
281 1 58.71 35.0983 7.0365 3.51224 0 0.0 1 0
283 1 58.71 1.72419 7.10688 5.15568 0 0.0 1 0
285 1 58.71 3.48168 7.03523 3.53701 0 0.0 1 0
287 1 58.71 5.25661 6.91954 5.30348 0 0.0 1 0
289 1 58.71 7.04311 7.08388 3.6197 0 0.0 1 0
291 1 58.71 8.80501 7.03318 5.33607 0 0.0 1 0
293 1 58.71 10.5821 7.14519 3.5118 0 0.0 1 0
295 1 58.71 12.3861 7.05777 5.2767 0 0.0 1 0
297 1 58.71 13.9277 7.13843 3.52763 0 0.0 1 0
299 1 58.71 15.9276 6.96564 5.3641 0 0.0 1 0
301 1 58.71 17.5526 7.07571 3.63256 301 0.893504 1 0
303 1 58.71 19.3944 7.04849 5.37783 303 -0.408642 1 0
305 1 58.71 21.0557 7.02848 3.53972 305 0.332306 1 0
307 1 58.71 22.783 7.07324 5.27363 307 0.525654 1 0
309 1 58.71 24.5935 6.98859 3.46065 309 -0.103975 1 0
311 1 58.71 26.3185 7.00423 5.26445 311 0.14022 1 0
313 1 58.71 28.0948 7.06999 3.42822 313 0.173639 1 0
315 1 58.71 29.9688 7.01054 5.31246 315 -0.828781 1 0
317 1 58.71 31.6633 7.14014 3.49598 317 0.152533 1 0
319 1 58.71 33.462 7.08163 5.24317 319 -0.698682 1 0
282 1 58.71 1.7526 8.77011 3.39896 0 0.0 1 0
284 1 58.71 0.0829269 8.94824 5.27862 0 0.0 1 0
321 1 58.71 0.173772 10.5972 3.52486 0 0.0 1 0
323 1 58.71 1.87787 10.5555 5.43486 0 0.0 1 0
286 1 58.71 5.3113 8.72138 3.62572 0 0.0 1 0
288 1 58.71 3.57994 8.74993 5.31126 0 0.0 1 0
325 1 58.71 3.50071 10.4957 3.55659 0 0.0 1 0
327 1 58.71 5.28525 10.5674 5.27932 0 0.0 1 0
292 1 58.71 7.0046 8.89761 5.33637 0 0.0 1 0
329 1 58.71 6.89563 10.802 3.48269 0 0.0 1 0
290 1 58.71 8.68148 8.89306 3.56299 0 0.0 1 0
296 1 58.71 10.5499 8.95764 5.32804 0 0.0 1 0
331 1 58.71 8.65857 10.6548 5.29845 0 0.0 1 0
333 1 58.71 10.5246 10.6525 3.58613 0 0.0 1 0
294 1 58.71 12.2696 8.90815 3.61146 0 0.0 1 0
335 1 58.71 12.3823 10.4325 5.39947 0 0.0 1 0
298 1 58.71 15.7867 8.81905 3.53482 0 0.0 1 0
300 1 58.71 14.1485 8.71758 5.36865 0 0.0 1 0
337 1 58.71 14.038 10.5858 3.61264 0 0.0 1 0
339 1 58.71 15.8742 10.5651 5.36603 0 0.0 1 0
304 1 58.71 17.5508 8.86544 5.32149 304 0.532179 1 0
341 1 58.71 17.4959 10.5021 3.54774 341 0.434461 1 0
302 1 58.71 19.2666 8.81969 3.55733 302 0.134285 1 0
308 1 58.71 21.0545 8.75489 5.34819 308 0.113299 1 0
343 1 58.71 19.3455 10.6452 5.38733 343 0.13331 1 0
345 1 58.71 21.0581 10.3842 3.59351 345 0.21395 1 0
306 1 58.71 22.9081 8.84923 3.57854 306 -0.33968 1 0
347 1 58.71 22.7667 10.5444 5.3788 347 0.611773 1 0
310 1 58.71 26.2559 8.76918 3.49171 310 0.52776 1 0
312 1 58.71 24.6195 8.78686 5.35222 312 0.128156 1 0
349 1 58.71 24.6326 10.5548 3.52994 349 -0.469651 1 0
351 1 58.71 26.3913 10.6002 5.28358 351 -0.622277 1 0
316 1 58.71 28.0577 8.75529 5.20691 316 0.347821 1 0
353 1 58.71 28.0771 10.5363 3.50854 353 0.445958 1 0
314 1 58.71 29.9252 8.82297 3.43209 314 -0.818712 1 0
320 1 58.71 31.5407 8.92159 5.29113 320 0.914196 1 0
355 1 58.71 29.7591 10.5424 5.28075 355 0.660136 1 0
357 1 58.71 31.5907 10.5834 3.51353 357 0.295159 1 0
318 1 58.71 33.4398 8.89472 3.62073 318 0.0625826 1 0
359 1 58.71 33.4289 10.6455 5.38687 359 0.162796 1 0
322 1 58.71 1.78974 12.2801 3.62551 0 0.0 1 0
324 1 58.71 35.1589 12.3355 5.39016 0 0.0 1 0
361 1 58.71 35.1686 14.035 3.62599 0 0.0 1 0
363 1 58.71 1.72877 14.0666 5.41942 0 0.0 1 0
326 1 58.71 5.29167 12.4241 3.55258 0 0.0 1 0
328 1 58.71 3.5828 12.3093 5.32005 0 0.0 1 0
365 1 58.71 3.38385 14.0944 3.60658 0 0.0 1 0
367 1 58.71 5.27602 14.2269 5.39925 0 0.0 1 0
332 1 58.71 7.01018 12.4354 5.27263 0 0.0 1 0
369 1 58.71 7.05016 14.0464 3.45128 0 0.0 1 0
330 1 58.71 8.83205 12.3544 3.52191 0 0.0 1 0
336 1 58.71 10.5032 12.3413 5.33888 0 0.0 1 0
371 1 58.71 8.74518 14.1735 5.21112 0 0.0 1 0
373 1 58.71 10.5975 14.1011 3.50769 0 0.0 1 0
334 1 58.71 12.3351 12.3332 3.6334 0 0.0 1 0
375 1 58.71 12.2907 14.1055 5.23102 0 0.0 1 0
338 1 58.71 15.8452 12.3461 3.55535 0 0.0 1 0
340 1 58.71 14.0513 12.3172 5.36912 0 0.0 1 0
377 1 58.71 14.1123 14.1011 3.61713 0 0.0 1 0
379 1 58.71 15.8873 14.0308 5.34493 0 0.0 1 0
344 1 58.71 17.661 12.2169 5.35764 344 -0.839029 1 0
381 1 58.71 17.5641 13.9981 3.48164 381 0.471382 1 0
342 1 58.71 19.3897 12.2262 3.57647 342 -0.889063 1 0
348 1 58.71 21.0077 12.3232 5.30522 348 0.782841 1 0
383 1 58.71 19.3219 14.1276 5.25919 383 -0.230521 1 0
385 1 58.71 21.0385 14.0922 3.57629 385 0.680714 1 0
346 1 58.71 22.7519 12.2224 3.57842 346 0.13657 1 0
387 1 58.71 22.8615 14.086 5.22101 387 -0.185135 1 0
350 1 58.71 26.4408 12.2947 3.5326 350 -0.685727 1 0
352 1 58.71 24.5735 12.3139 5.26961 352 0.366837 1 0
389 1 58.71 24.7099 14.0768 3.62685 389 -1.45535 1 0
391 1 58.71 26.4372 14.1191 5.21262 391 -0.255692 1 0
356 1 58.71 28.1139 12.3136 5.29811 356 0.261935 1 0
393 1 58.71 28.1814 14.0225 3.52924 393 0.0152278 1 0
354 1 58.71 29.9172 12.3368 3.64338 354 0.185705 1 0
360 1 58.71 31.7228 12.3535 5.4097 360 -0.570466 1 0
395 1 58.71 29.9407 14.1387 5.31158 395 -0.0543373 1 0
397 1 58.71 31.7103 14.118 3.61885 397 -0.0563735 1 0
358 1 58.71 33.4738 12.3304 3.64657 358 -0.602548 1 0
399 1 58.71 33.4225 14.1391 5.29553 399 -0.152063 1 0
362 1 58.71 1.69001 15.8375 3.58239 0 0.0 1 0
364 1 58.71 35.0694 15.8179 5.42 0 0.0 1 0
366 1 58.71 5.27127 15.8558 3.60095 0 0.0 1 0
368 1 58.71 3.48511 15.9863 5.44239 0 0.0 1 0
372 1 58.71 7.05681 15.9781 5.29867 0 0.0 1 0
370 1 58.71 8.83444 15.8748 3.60255 0 0.0 1 0
376 1 58.71 10.5527 15.8946 5.26382 0 0.0 1 0
374 1 58.71 12.4614 15.8738 3.53678 0 0.0 1 0
378 1 58.71 15.8224 15.8283 3.49705 0 0.0 1 0
380 1 58.71 14.1385 15.8563 5.38976 0 0.0 1 0
384 1 58.71 17.5465 15.7074 5.24302 384 -0.274858 1 0
382 1 58.71 19.3736 15.8595 3.51549 382 -0.613275 1 0
388 1 58.71 21.0786 15.8033 5.33999 388 0.442495 1 0
386 1 58.71 22.9459 15.9288 3.54916 386 -0.758802 1 0
390 1 58.71 26.3049 15.7372 3.52094 390 1.09943 1 0
392 1 58.71 24.5875 15.8443 5.32663 392 0.1789 1 0
396 1 58.71 28.1549 15.8584 5.23146 396 0.154411 1 0
394 1 58.71 30.0297 15.9095 3.55995 394 -0.32032 1 0
400 1 58.71 31.7361 15.8873 5.34727 400 -0.169938 1 0
398 1 58.71 33.5057 15.8783 3.61213 398 -0.916252 1 0
932 1 58.71 7.07507 12.3518 15.7955 0 0.0 1 0
402 1 58.71 1.75177 1.84079 6.96298 0 0.0 1 0
225 1 58.71 21.1406 0.0124216 3.56302 225 0.425672 1 0
406 1 58.71 5.28011 1.81167 7.02627 0 0.0 1 0
233 1 58.71 28.1733 0.1191 3.55633 233 -0.176998 1 0
410 1 58.71 8.93346 1.80474 7.02341 0 0.0 1 0
967 1 58.71 5.31225 13.9796 15.8451 0 0.0 1 0
414 1 58.71 12.4445 1.74193 6.85165 0 0.0 1 0
928 1 58.71 3.68156 12.2362 15.8683 0 0.0 1 0
418 1 58.71 15.9436 1.76652 7.01797 0 0.0 1 0
963 1 58.71 1.80652 14.0966 15.9017 0 0.0 1 0
422 1 58.71 19.3636 1.82878 6.95469 422 -0.365418 1 0
924 1 58.71 0.115462 12.2294 15.8056 0 0.0 1 0
426 1 58.71 22.8368 1.66134 7.19432 426 0.295695 1 0
6 1 58.71 5.21963 1.81697 0.010164 0 0.0 1 0
430 1 58.71 26.3933 1.74989 6.989 430 -0.308064 1 0
959 1 58.71 33.4623 10.7373 15.7148 959 -0.581658 1 0
434 1 58.71 30.0295 1.76761 6.97395 434 -1.12775 1 0
102 1 58.71 19.2877 8.91663 0.0715548 102 0.12569 1 0
438 1 58.71 33.4376 1.6329 7.08241 438 0.412918 1 0
441 1 58.71 35.1537 3.5152 7.18138 0 0.0 1 0
442 1 58.71 1.83137 5.22247 7.11325 0 0.0 1 0
445 1 58.71 3.5035 3.47438 7.13366 0 0.0 1 0
446 1 58.71 5.18943 5.29163 7.04661 0 0.0 1 0
449 1 58.71 6.95416 3.45045 7.04795 0 0.0 1 0
450 1 58.71 8.76826 5.25291 6.98346 0 0.0 1 0
453 1 58.71 10.7152 3.44542 6.95147 0 0.0 1 0
454 1 58.71 12.3862 5.3311 7.03218 0 0.0 1 0
457 1 58.71 14.2302 3.49906 6.98656 0 0.0 1 0
458 1 58.71 15.9067 5.285 7.03439 0 0.0 1 0
461 1 58.71 17.7387 3.63441 7.04911 461 -0.846975 1 0
462 1 58.71 19.4446 5.29888 7.02082 462 0.151454 1 0
465 1 58.71 21.0456 3.48938 7.10882 465 0.874523 1 0
466 1 58.71 22.8312 5.2351 7.13299 466 -0.135473 1 0
469 1 58.71 24.6032 3.50692 7.02643 469 -0.50489 1 0
470 1 58.71 26.2652 5.33116 7.12838 470 0.160566 1 0
473 1 58.71 28.1467 3.41905 7.06244 473 -0.195719 1 0
474 1 58.71 29.7694 5.31794 7.06479 474 0.894866 1 0
477 1 58.71 31.6743 3.54971 7.06745 477 0.34216 1 0
478 1 58.71 33.4838 5.28728 7.1687 478 -0.318422 1 0
481 1 58.71 0.0384653 7.12126 7.01467 0 0.0 1 0
485 1 58.71 3.49555 7.01117 7.09827 0 0.0 1 0
489 1 58.71 6.94666 7.03408 7.04286 0 0.0 1 0
493 1 58.71 10.5552 7.08101 7.03108 0 0.0 1 0
497 1 58.71 14.124 7.01926 7.12131 0 0.0 1 0
501 1 58.71 17.6263 7.08147 7.05497 501 0.128342 1 0
505 1 58.71 21.1006 7.13436 7.12462 505 0.556436 1 0
509 1 58.71 24.5906 7.06735 7.1145 509 -0.0760082 1 0
513 1 58.71 28.0922 7.00688 7.02552 513 -0.237565 1 0
517 1 58.71 31.6622 7.07339 7.0254 517 -0.119285 1 0
482 1 58.71 1.81486 8.73616 7.13106 0 0.0 1 0
521 1 58.71 35.2053 10.4809 7.12524 0 0.0 1 0
486 1 58.71 5.15888 8.81078 7.04883 0 0.0 1 0
525 1 58.71 3.58929 10.5416 7.13244 0 0.0 1 0
529 1 58.71 7.04601 10.6035 7.12047 0 0.0 1 0
490 1 58.71 8.80666 8.81897 7.0246 0 0.0 1 0
533 1 58.71 10.4503 10.671 6.99466 0 0.0 1 0
494 1 58.71 12.2981 8.8223 7.12533 0 0.0 1 0
498 1 58.71 15.8417 8.81783 7.14693 0 0.0 1 0
537 1 58.71 14.1111 10.4698 7.0328 0 0.0 1 0
541 1 58.71 17.6262 10.561 7.10648 541 0.110237 1 0
502 1 58.71 19.4023 8.81118 7.17131 502 -0.347329 1 0
545 1 58.71 21.0692 10.743 7.08178 545 0.280972 1 0
506 1 58.71 22.9081 8.78354 7.06468 506 -0.64681 1 0
510 1 58.71 26.4151 8.83294 7.0852 510 -0.191378 1 0
549 1 58.71 24.6239 10.6655 7.08216 549 0.70259 1 0
553 1 58.71 28.0565 10.644 7.00027 553 0.469437 1 0
514 1 58.71 29.8218 8.77904 7.01051 514 -0.0876907 1 0
557 1 58.71 31.6503 10.6174 7.03557 557 -0.392192 1 0
518 1 58.71 33.4154 8.7539 7.03922 518 -0.182156 1 0
522 1 58.71 1.84934 12.2433 7.16954 0 0.0 1 0
561 1 58.71 0.020581 14.1148 7.10267 0 0.0 1 0
526 1 58.71 5.2648 12.3504 7.01601 0 0.0 1 0
565 1 58.71 3.51259 14.0454 7.03366 0 0.0 1 0
569 1 58.71 6.98672 14.1054 7.12603 0 0.0 1 0
530 1 58.71 8.77595 12.4076 7.16964 0 0.0 1 0
573 1 58.71 10.5254 14.1572 6.95311 0 0.0 1 0
534 1 58.71 12.2641 12.3496 6.9501 0 0.0 1 0
538 1 58.71 15.8125 12.2082 7.15571 0 0.0 1 0
577 1 58.71 14.0547 14.0377 7.14095 0 0.0 1 0
581 1 58.71 17.5423 14.0441 7.04599 581 -0.00671873 1 0
542 1 58.71 19.2897 12.4019 7.17748 542 0.421128 1 0
585 1 58.71 21.1411 14.1118 7.01055 585 -0.878535 1 0
546 1 58.71 22.8699 12.4574 7.0577 546 -0.364676 1 0
550 1 58.71 26.3914 12.4157 7.0435 550 -0.643962 1 0
589 1 58.71 24.5596 14.0968 7.07713 589 0.632704 1 0
593 1 58.71 28.1267 14.2917 7.00765 593 0.568945 1 0
554 1 58.71 29.8864 12.4085 7.03503 554 -0.101986 1 0
597 1 58.71 31.6968 14.1269 7.17101 597 -0.512306 1 0
558 1 58.71 33.3933 12.4228 7.20126 558 0.227164 1 0
562 1 58.71 1.72842 15.827 7.00368 0 0.0 1 0
566 1 58.71 5.28247 15.9237 7.1693 0 0.0 1 0
570 1 58.71 8.77607 15.9906 7.0084 0 0.0 1 0
574 1 58.71 12.3449 15.8634 6.97249 0 0.0 1 0
578 1 58.71 15.7629 15.8419 7.05129 0 0.0 1 0
582 1 58.71 19.3401 15.7776 6.96124 582 -0.559686 1 0
586 1 58.71 22.8207 15.7964 7.09892 586 0.1927 1 0
590 1 58.71 26.3176 15.7633 7.01667 590 0.122607 1 0
594 1 58.71 30.0134 15.8256 7.03642 594 -0.392539 1 0
598 1 58.71 33.4057 15.8812 7.08982 598 0.32577 1 0
955 1 58.71 29.8903 10.5934 15.8119 955 0.397388 1 0
404 1 58.71 0.07984 1.74106 8.85801 0 0.0 1 0
920 1 58.71 31.7376 8.81469 15.9687 920 -0.933623 1 0
602 1 58.71 1.78016 1.71622 10.6977 0 0.0 1 0
1194 1 58.71 29.8932 15.9004 17.5832 1194 0.223696 1 0
408 1 58.71 3.53908 1.61683 8.80739 0 0.0 1 0
916 1 58.71 28.2064 8.8693 15.7907 916 0.278346 1 0
606 1 58.71 5.30076 1.74189 10.413 0 0.0 1 0
412 1 58.71 7.14624 1.76003 8.75008 0 0.0 1 0
951 1 58.71 26.4258 10.4684 15.8977 951 -0.612156 1 0
807 1 58.71 5.25783 0.0649751 15.7667 0 0.0 1 0
416 1 58.71 10.6942 1.71631 8.68817 0 0.0 1 0
610 1 58.71 8.82123 1.67388 10.4912 0 0.0 1 0
1162 1 58.71 1.79852 15.873 17.5441 0 0.0 1 0
912 1 58.71 24.6309 8.83628 15.8689 912 -0.642289 1 0
614 1 58.71 12.358 1.76938 10.5614 0 0.0 1 0
1158 1 58.71 33.4582 12.3341 17.5578 1158 -0.160066 1 0
420 1 58.71 14.1607 1.63019 8.69573 0 0.0 1 0
947 1 58.71 22.9247 10.6462 15.8862 947 -0.434569 1 0
618 1 58.71 15.8801 1.68394 10.549 0 0.0 1 0
424 1 58.71 17.736 1.82386 8.77893 424 -1.12954 1 0
61 1 58.71 17.5309 3.66451 -0.0329063 61 0.630923 1 0
943 1 58.71 19.2575 10.5582 15.8069 943 0.54908 1 0
428 1 58.71 21.094 1.78005 8.86781 428 0.109462 1 0
622 1 58.71 19.2826 1.70431 10.586 622 1.1428 1 0
405 1 58.71 3.4982 0.0398788 7.03165 0 0.0 1 0
2217 1 58.71 14.1552 17.5819 3.42759 0 0.0 1 0
626 1 58.71 22.8457 1.89763 10.6913 626 0.103824 1 0
94 1 58.71 12.2554 8.90665 0.0256102 0 0.0 1 0
432 1 58.71 24.5969 1.61803 8.83404 432 0.10004 1 0
1113 1 58.71 28.2214 6.91854 17.5889 1113 -1.00574 1 0
630 1 58.71 26.4679 1.7409 10.5358 630 -0.833649 1 0
436 1 58.71 28.1429 1.77154 8.82124 436 0.539651 1 0
908 1 58.71 21.0808 8.85417 15.7266 908 0.181883 1 0
904 1 58.71 17.5221 8.66559 15.7556 904 0.185472 1 0
440 1 58.71 31.6186 1.75173 8.7395 440 0.860834 1 0
634 1 58.71 29.9214 1.70827 10.5026 634 0.213646 1 0
2419 1 58.71 15.8009 17.5479 8.84308 0 0.0 1 0
939 1 58.71 15.9683 10.4568 15.9189 0 0.0 1 0
638 1 58.71 33.3768 1.7487 10.6334 638 0.487421 1 0
443 1 58.71 1.7594 3.49752 8.83321 0 0.0 1 0
444 1 58.71 0.12147 5.35842 8.82665 0 0.0 1 0
641 1 58.71 0.0913138 3.40502 10.6553 0 0.0 1 0
642 1 58.71 1.80946 5.29481 10.6664 0 0.0 1 0
447 1 58.71 5.25034 3.48138 8.871 0 0.0 1 0
448 1 58.71 3.48756 5.29556 8.88545 0 0.0 1 0
645 1 58.71 3.44147 3.44831 10.4925 0 0.0 1 0
646 1 58.71 5.1899 5.30707 10.5808 0 0.0 1 0
452 1 58.71 7.03315 5.26556 8.83168 0 0.0 1 0
649 1 58.71 7.06814 3.50368 10.5548 0 0.0 1 0
451 1 58.71 8.82027 3.46414 8.72563 0 0.0 1 0
456 1 58.71 10.5285 5.20839 8.71455 0 0.0 1 0
650 1 58.71 8.89848 5.21218 10.4975 0 0.0 1 0
653 1 58.71 10.5839 3.45739 10.5469 0 0.0 1 0
455 1 58.71 12.3888 3.43506 8.65282 0 0.0 1 0
654 1 58.71 12.2918 5.1663 10.4943 0 0.0 1 0
459 1 58.71 15.86 3.38303 8.85358 0 0.0 1 0
460 1 58.71 14.1337 5.11123 8.75197 0 0.0 1 0
657 1 58.71 14.0587 3.37625 10.4118 0 0.0 1 0
658 1 58.71 16.0106 5.24063 10.4966 0 0.0 1 0
464 1 58.71 17.6645 5.27288 8.82752 464 0.172007 1 0
661 1 58.71 17.6987 3.52096 10.5974 661 -0.72619 1 0
463 1 58.71 19.4367 3.41831 8.91216 463 -0.221621 1 0
468 1 58.71 21.1151 5.33405 8.99429 468 -0.128315 1 0
662 1 58.71 19.3458 5.32369 10.6221 662 0.0740102 1 0
665 1 58.71 21.1473 3.53759 10.6079 665 -0.479154 1 0
467 1 58.71 22.7967 3.50489 8.78016 467 0.898094 1 0
666 1 58.71 22.9391 5.30256 10.6563 666 -0.302591 1 0
471 1 58.71 26.3311 3.4102 8.71758 471 -0.319027 1 0
472 1 58.71 24.5968 5.3387 8.9106 472 0.0576864 1 0
669 1 58.71 24.5973 3.48465 10.6704 669 0.573507 1 0
670 1 58.71 26.3235 5.19036 10.5794 670 0.522095 1 0
476 1 58.71 27.9716 5.28867 8.76834 476 0.527391 1 0
673 1 58.71 28.1487 3.55342 10.4827 673 -0.410153 1 0
475 1 58.71 29.9102 3.4813 8.71265 475 -0.214166 1 0
480 1 58.71 31.6522 5.22705 8.85135 480 -0.421947 1 0
674 1 58.71 29.7521 5.25153 10.4399 674 1.03198 1 0
677 1 58.71 31.6402 3.42209 10.6211 677 -0.311605 1 0
479 1 58.71 33.4274 3.53788 8.83601 479 0.153649 1 0
678 1 58.71 33.4676 5.29476 10.6104 678 -0.06677 1 0
483 1 58.71 1.8822 7.11438 8.97821 0 0.0 1 0
681 1 58.71 0.00975997 6.99666 10.552 0 0.0 1 0
487 1 58.71 5.21433 6.9936 8.84066 0 0.0 1 0
685 1 58.71 3.56774 7.02144 10.6054 0 0.0 1 0
689 1 58.71 7.07294 7.01402 10.5526 0 0.0 1 0
491 1 58.71 8.7013 6.91807 8.72659 0 0.0 1 0
693 1 58.71 10.576 7.05277 10.5244 0 0.0 1 0
495 1 58.71 12.2883 7.01459 8.87408 0 0.0 1 0
499 1 58.71 15.8501 7.04104 8.80469 0 0.0 1 0
697 1 58.71 14.1256 6.96614 10.5199 0 0.0 1 0
701 1 58.71 17.5745 6.96553 10.6457 701 0.42401 1 0
503 1 58.71 19.3408 7.04013 8.81705 503 0.136029 1 0
705 1 58.71 21.0787 7.12534 10.6884 705 0.336599 1 0
507 1 58.71 22.8423 7.02018 8.86739 507 0.262856 1 0
511 1 58.71 26.3888 7.10146 8.80155 511 -0.48653 1 0
709 1 58.71 24.8076 7.06984 10.6049 709 -1.51739 1 0
713 1 58.71 28.0225 7.1863 10.5129 713 0.672104 1 0
515 1 58.71 29.8017 6.93875 8.78583 515 0.575552 1 0
717 1 58.71 31.6297 6.94255 10.6218 717 -0.476157 1 0
519 1 58.71 33.2717 6.99503 8.88113 519 1.25817 1 0