ITEM: TIMESTEP
0
ITEM: NUMBER OF ATOMS
4000
ITEM: BOX BOUNDS pp pp pp
0.0 35.2
0.0 35.2
0.0 35.2
ITEM: ATOMS id type mass x y z c_1[1] c_1[2] structure_types fault_types 
1 1 58.71 0.0 0.0 0.0 0 0.0 1 0
2 1 58.71 1.76 1.76 0.0 0 0.0 1 0
3 1 58.71 1.76 0.0 1.76 0 0.0 1 0
4 1 58.71 0.0 1.76 1.76 0 0.0 1 0
5 1 58.71 3.52 0.0 0.0 0 0.0 1 0
6 1 58.71 5.28 1.76 0.0 0 0.0 1 0
7 1 58.71 5.28 0.0 1.76 0 0.0 1 0
8 1 58.71 3.52 1.76 1.76 0 0.0 1 0
9 1 58.71 7.04 0.0 0.0 0 0.0 1 0
12 1 58.71 7.04 1.76 1.76 0 0.0 1 0
10 1 58.71 8.8 1.76 0.0 0 0.0 1 0
11 1 58.71 8.8 0.0 1.76 0 0.0 1 0
13 1 58.71 10.56 0.0 0.0 0 0.0 1 0
16 1 58.71 10.56 1.76 1.76 0 0.0 1 0
14 1 58.71 12.32 1.76 0.0 0 0.0 1 0
15 1 58.71 12.32 0.0 1.76 0 0.0 1 0
17 1 58.71 14.08 0.0 0.0 0 0.0 1 0
18 1 58.71 15.84 1.76 0.0 0 0.0 1 0
19 1 58.71 15.84 0.0 1.76 0 0.0 1 0
20 1 58.71 14.08 1.76 1.76 0 0.0 1 0
21 1 58.71 17.6 0.0 0.0 21 -1.87298e-14 1 0
24 1 58.71 17.6 1.76 1.76 24 -1.81053e-14 1 0
22 1 58.71 19.36 1.76 0.0 22 1.86344e-14 1 0
23 1 58.71 19.36 0.0 1.76 23 1.8624e-14 1 0
25 1 58.71 21.12 0.0 0.0 25 -1.86517e-14 1 0
28 1 58.71 21.12 1.76 1.76 28 -1.83169e-14 1 0
26 1 58.71 22.88 1.76 0.0 26 1.84826e-14 1 0
27 1 58.71 22.88 0.0 1.76 27 1.848e-14 1 0
29 1 58.71 24.64 0.0 0.0 29 -1.86188e-14 1 0
30 1 58.71 26.4 1.76 0.0 30 1.76179e-14 1 0
31 1 58.71 26.4 0.0 1.76 31 1.763e-14 1 0
32 1 58.71 24.64 1.76 1.76 32 -1.81417e-14 1 0
33 1 58.71 28.16 0.0 0.0 33 -6.93889e-18 1 0
36 1 58.71 28.16 1.76 1.76 36 -3.64292e-17 1 0
34 1 58.71 29.92 1.76 0.0 34 -1.68719e-14 1 0
35 1 58.71 29.92 0.0 1.76 35 -1.68442e-14 1 0
37 1 58.71 31.68 0.0 0.0 37 -8.8124e-16 1 0
40 1 58.71 31.68 1.76 1.76 40 -4.28477e-16 1 0
38 1 58.71 33.44 1.76 0.0 38 4.00791e-14 1 0
39 1 58.71 33.44 0.0 1.76 39 4.0426e-14 1 0
41 1 58.71 0.0 3.52 0.0 0 0.0 1 0
42 1 58.71 1.76 5.28 0.0 0 0.0 1 0
43 1 58.71 1.76 3.52 1.76 0 0.0 1 0
44 1 58.71 0.0 5.28 1.76 0 0.0 1 0
45 1 58.71 3.52 3.52 0.0 0 0.0 1 0
46 1 58.71 5.28 5.28 0.0 0 0.0 1 0
47 1 58.71 5.28 3.52 1.76 0 0.0 1 0
48 1 58.71 3.52 5.28 1.76 0 0.0 1 0
49 1 58.71 7.04 3.52 0.0 0 0.0 1 0
52 1 58.71 7.04 5.28 1.76 0 0.0 1 0
50 1 58.71 8.8 5.28 0.0 0 0.0 1 0
51 1 58.71 8.8 3.52 1.76 0 0.0 1 0
53 1 58.71 10.56 3.52 0.0 0 0.0 1 0
56 1 58.71 10.56 5.28 1.76 0 0.0 1 0
54 1 58.71 12.32 5.28 0.0 0 0.0 1 0
55 1 58.71 12.32 3.52 1.76 0 0.0 1 0
57 1 58.71 14.08 3.52 0.0 0 0.0 1 0
58 1 58.71 15.84 5.28 0.0 0 0.0 1 0
59 1 58.71 15.84 3.52 1.76 0 0.0 1 0
60 1 58.71 14.08 5.28 1.76 0 0.0 1 0
61 1 58.71 17.6 3.52 0.0 61 -1.933e-14 1 0
64 1 58.71 17.6 5.28 1.76 64 -1.92311e-14 1 0
62 1 58.71 19.36 5.28 0.0 62 1.95616e-14 1 0
63 1 58.71 19.36 3.52 1.76 63 1.90559e-14 1 0
65 1 58.71 21.12 3.52 0.0 65 -1.95746e-14 1 0
68 1 58.71 21.12 5.28 1.76 68 -1.92433e-14 1 0
66 1 58.71 22.88 5.28 0.0 66 1.95633e-14 1 0
67 1 58.71 22.88 3.52 1.76 67 1.90594e-14 1 0
69 1 58.71 24.64 3.52 0.0 69 -1.95694e-14 1 0
70 1 58.71 26.4 5.28 0.0 70 1.88452e-14 1 0
71 1 58.71 26.4 3.52 1.76 71 1.85746e-14 1 0
72 1 58.71 24.64 5.28 1.76 72 -1.90906e-14 1 0
73 1 58.71 28.16 3.52 0.0 73 0.0 1 0
76 1 58.71 28.16 5.28 1.76 76 -1.64799e-16 1 0
74 1 58.71 29.92 5.28 0.0 74 -1.83248e-14 1 0
75 1 58.71 29.92 3.52 1.76 75 -1.77844e-14 1 0
77 1 58.71 31.68 3.52 0.0 77 -7.07767e-16 1 0
80 1 58.71 31.68 5.28 1.76 80 -4.45824e-16 1 0
78 1 58.71 33.44 5.28 0.0 78 4.11893e-14 1 0
79 1 58.71 33.44 3.52 1.76 79 4.21191e-14 1 0
81 1 58.71 0.0 7.04 0.0 0 0.0 1 0
83 1 58.71 1.76 7.04 1.76 0 0.0 1 0
85 1 58.71 3.52 7.04 0.0 0 0.0 1 0
87 1 58.71 5.28 7.04 1.76 0 0.0 1 0
89 1 58.71 7.04 7.04 0.0 0 0.0 1 0
91 1 58.71 8.8 7.04 1.76 0 0.0 1 0
93 1 58.71 10.56 7.04 0.0 0 0.0 1 0
95 1 58.71 12.32 7.04 1.76 0 0.0 1 0
97 1 58.71 14.08 7.04 0.0 0 0.0 1 0
99 1 58.71 15.84 7.04 1.76 0 0.0 1 0
101 1 58.71 17.6 7.04 0.0 101 -1.9239e-14 1 0
103 1 58.71 19.36 7.04 1.76 103 1.92259e-14 1 0
105 1 58.71 21.12 7.04 0.0 105 -1.94064e-14 1 0
107 1 58.71 22.88 7.04 1.76 107 1.94332e-14 1 0
109 1 58.71 24.64 7.04 0.0 109 -1.98608e-14 1 0
111 1 58.71 26.4 7.04 1.76 111 1.87472e-14 1 0
113 1 58.71 28.16 7.04 0.0 113 -3.46945e-18 1 0
115 1 58.71 29.92 7.04 1.76 115 -1.77133e-14 1 0
117 1 58.71 31.68 7.04 0.0 117 -8.74301e-16 1 0
119 1 58.71 33.44 7.04 1.76 119 4.10366e-14 1 0
82 1 58.71 1.76 8.8 0.0 0 0.0 1 0
84 1 58.71 0.0 8.8 1.76 0 0.0 1 0
121 1 58.71 0.0 10.56 0.0 0 0.0 1 0
123 1 58.71 1.76 10.56 1.76 0 0.0 1 0
86 1 58.71 5.28 8.8 0.0 0 0.0 1 0
88 1 58.71 3.52 8.8 1.76 0 0.0 1 0
125 1 58.71 3.52 10.56 0.0 0 0.0 1 0
127 1 58.71 5.28 10.56 1.76 0 0.0 1 0
92 1 58.71 7.04 8.8 1.76 0 0.0 1 0
129 1 58.71 7.04 10.56 0.0 0 0.0 1 0
90 1 58.71 8.8 8.8 0.0 0 0.0 1 0
96 1 58.71 10.56 8.8 1.76 0 0.0 1 0
131 1 58.71 8.8 10.56 1.76 0 0.0 1 0
133 1 58.71 10.56 10.56 0.0 0 0.0 1 0
94 1 58.71 12.32 8.8 0.0 0 0.0 1 0
135 1 58.71 12.32 10.56 1.76 0 0.0 1 0
98 1 58.71 15.84 8.8 0.0 0 0.0 1 0
100 1 58.71 14.08 8.8 1.76 0 0.0 1 0
137 1 58.71 14.08 10.56 0.0 0 0.0 1 0
139 1 58.71 15.84 10.56 1.76 0 0.0 1 0
104 1 58.71 17.6 8.8 1.76 104 -1.88009e-14 1 0
141 1 58.71 17.6 10.56 0.0 141 -1.80351e-14 1 0
102 1 58.71 19.36 8.8 0.0 102 1.95607e-14 1 0
108 1 58.71 21.12 8.8 1.76 108 -1.92181e-14 1 0
143 1 58.71 19.36 10.56 1.76 143 1.82649e-14 1 0
145 1 58.71 21.12 10.56 0.0 145 -1.82996e-14 1 0
106 1 58.71 22.88 8.8 0.0 106 1.95503e-14 1 0
147 1 58.71 22.88 10.56 1.76 147 1.8251e-14 1 0
110 1 58.71 26.4 8.8 0.0 110 1.88408e-14 1 0
112 1 58.71 24.64 8.8 1.76 112 -1.93665e-14 1 0
149 1 58.71 24.64 10.56 0.0 149 -1.84575e-14 1 0
151 1 58.71 26.4 10.56 1.76 151 1.74617e-14 1 0
116 1 58.71 28.16 8.8 1.76 116 8.67362e-18 1 0
153 1 58.71 28.16 10.56 0.0 153 8.67362e-19 1 0
114 1 58.71 29.92 8.8 0.0 114 -1.81357e-14 1 0
120 1 58.71 31.68 8.8 1.76 120 -6.14092e-16 1 0
155 1 58.71 29.92 10.56 1.76 155 -1.63689e-14 1 0
157 1 58.71 31.68 10.56 0.0 157 -4.23273e-16 1 0
118 1 58.71 33.44 8.8 0.0 118 3.9857e-14 1 0
159 1 58.71 33.44 10.56 1.76 159 4.09568e-14 1 0
122 1 58.71 1.76 12.32 0.0 0 0.0 1 0
124 1 58.71 0.0 12.32 1.76 0 0.0 1 0
161 1 58.71 0.0 14.08 0.0 0 0.0 1 0
163 1 58.71 1.76 14.08 1.76 0 0.0 1 0
126 1 58.71 5.28 12.32 0.0 0 0.0 1 0
128 1 58.71 3.52 12.32 1.76 0 0.0 1 0
165 1 58.71 3.52 14.08 0.0 0 0.0 1 0
167 1 58.71 5.28 14.08 1.76 0 0.0 1 0
132 1 58.71 7.04 12.32 1.76 0 0.0 1 0
169 1 58.71 7.04 14.08 0.0 0 0.0 1 0
130 1 58.71 8.8 12.32 0.0 0 0.0 1 0
136 1 58.71 10.56 12.32 1.76 0 0.0 1 0
171 1 58.71 8.8 14.08 1.76 0 0.0 1 0
173 1 58.71 10.56 14.08 0.0 0 0.0 1 0
134 1 58.71 12.32 12.32 0.0 0 0.0 1 0
175 1 58.71 12.32 14.08 1.76 0 0.0 1 0
138 1 58.71 15.84 12.32 0.0 0 0.0 1 0
140 1 58.71 14.08 12.32 1.76 0 0.0 1 0
177 1 58.71 14.08 14.08 0.0 0 0.0 1 0
179 1 58.71 15.84 14.08 1.76 0 0.0 1 0
144 1 58.71 17.6 12.32 1.76 144 -1.75849e-14 1 0
181 1 58.71 17.6 14.08 0.0 181 -1.79032e-14 1 0
142 1 58.71 19.36 12.32 0.0 142 1.84592e-14 1 0
148 1 58.71 21.12 12.32 1.76 148 -1.8088e-14 1 0
183 1 58.71 19.36 14.08 1.76 183 1.82805e-14 1 0
185 1 58.71 21.12 14.08 0.0 185 -1.8467e-14 1 0
146 1 58.71 22.88 12.32 0.0 146 1.8454e-14 1 0
187 1 58.71 22.88 14.08 1.76 187 1.8114e-14 1 0
150 1 58.71 26.4 12.32 0.0 150 1.74132e-14 1 0
152 1 58.71 24.64 12.32 1.76 152 -1.80845e-14 1 0
189 1 58.71 24.64 14.08 0.0 189 -1.84444e-14 1 0
191 1 58.71 26.4 14.08 1.76 191 1.74782e-14 1 0
156 1 58.71 28.16 12.32 1.76 156 -3.46945e-18 1 0
193 1 58.71 28.16 14.08 0.0 193 -1.73472e-16 1 0
154 1 58.71 29.92 12.32 0.0 154 -1.68112e-14 1 0
160 1 58.71 31.68 12.32 1.76 160 -4.33681e-16 1 0
195 1 58.71 29.92 14.08 1.76 195 -1.6368e-14 1 0
197 1 58.71 31.68 14.08 0.0 197 -3.95517e-16 1 0
158 1 58.71 33.44 12.32 0.0 158 3.98015e-14 1 0
199 1 58.71 33.44 14.08 1.76 199 4.07452e-14 1 0
162 1 58.71 1.76 15.84 0.0 0 0.0 1 0
164 1 58.71 0.0 15.84 1.76 0 0.0 1 0
166 1 58.71 5.28 15.84 0.0 0 0.0 1 0
168 1 58.71 3.52 15.84 1.76 0 0.0 1 0
172 1 58.71 7.04 15.84 1.76 0 0.0 1 0
170 1 58.71 8.8 15.84 0.0 0 0.0 1 0
176 1 58.71 10.56 15.84 1.76 0 0.0 1 0
174 1 58.71 12.32 15.84 0.0 0 0.0 1 0
178 1 58.71 15.84 15.84 0.0 0 0.0 1 0
180 1 58.71 14.08 15.84 1.76 0 0.0 1 0
184 1 58.71 17.6 15.84 1.76 184 -1.91817e-14 1 0
182 1 58.71 19.36 15.84 0.0 182 1.93994e-14 1 0
188 1 58.71 21.12 15.84 1.76 188 -1.94194e-14 1 0
186 1 58.71 22.88 15.84 0.0 186 1.94037e-14 1 0
190 1 58.71 26.4 15.84 0.0 190 1.87177e-14 1 0
192 1 58.71 24.64 15.84 1.76 192 -1.9343e-14 1 0
196 1 58.71 28.16 15.84 1.76 196 -7.45931e-17 1 0
194 1 58.71 29.92 15.84 0.0 194 -1.76768e-14 1 0
200 1 58.71 31.68 15.84 1.76 200 -6.25368e-16 1 0
198 1 58.71 33.44 15.84 0.0 198 3.98917e-14 1 0
201 1 58.71 0.0 0.0 3.52 0 0.0 1 0
202 1 58.71 1.76 1.76 3.52 0 0.0 1 0
203 1 58.71 1.76 0.0 5.28 0 0.0 1 0
204 1 58.71 0.0 1.76 5.28 0 0.0 1 0
205 1 58.71 3.52 0.0 3.52 0 0.0 1 0
206 1 58.71 5.28 1.76 3.52 0 0.0 1 0
207 1 58.71 5.28 0.0 5.28 0 0.0 1 0
208 1 58.71 3.52 1.76 5.28 0 0.0 1 0
209 1 58.71 7.04 0.0 3.52 0 0.0 1 0
212 1 58.71 7.04 1.76 5.28 0 0.0 1 0
210 1 58.71 8.8 1.76 3.52 0 0.0 1 0
211 1 58.71 8.8 0.0 5.28 0 0.0 1 0
213 1 58.71 10.56 0.0 3.52 0 0.0 1 0
216 1 58.71 10.56 1.76 5.28 0 0.0 1 0
214 1 58.71 12.32 1.76 3.52 0 0.0 1 0
215 1 58.71 12.32 0.0 5.28 0 0.0 1 0
217 1 58.71 14.08 0.0 3.52 0 0.0 1 0
218 1 58.71 15.84 1.76 3.52 0 0.0 1 0
219 1 58.71 15.84 0.0 5.28 0 0.0 1 0
220 1 58.71 14.08 1.76 5.28 0 0.0 1 0
221 1 58.71 17.6 0.0 3.52 221 -1.93196e-14 1 0
224 1 58.71 17.6 1.76 5.28 224 -1.9108e-14 1 0
222 1 58.71 19.36 1.76 3.52 222 1.90646e-14 1 0
223 1 58.71 19.36 0.0 5.28 223 1.95928e-14 1 0
225 1 58.71 21.12 0.0 3.52 225 -1.95677e-14 1 0
228 1 58.71 21.12 1.76 5.28 228 -1.94792e-14 1 0
226 1 58.71 22.88 1.76 3.52 226 1.90655e-14 1 0
227 1 58.71 22.88 0.0 5.28 227 1.95807e-14 1 0
229 1 58.71 24.64 0.0 3.52 229 -1.95607e-14 1 0
230 1 58.71 26.4 1.76 3.52 230 1.86335e-14 1 0
231 1 58.71 26.4 0.0 5.28 231 1.88018e-14 1 0
232 1 58.71 24.64 1.76 5.28 232 -1.94202e-14 1 0
233 1 58.71 28.16 0.0 3.52 233 1.73472e-18 1 0
236 1 58.71 28.16 1.76 5.28 236 -8.23994e-17 1 0
234 1 58.71 29.92 1.76 3.52 234 -1.81261e-14 1 0
235 1 58.71 29.92 0.0 5.28 235 -1.82224e-14 1 0
237 1 58.71 31.68 0.0 3.52 237 -5.96745e-16 1 0
240 1 58.71 31.68 1.76 5.28 240 -4.44089e-16 1 0
238 1 58.71 33.44 1.76 3.52 238 4.20358e-14 1 0
239 1 58.71 33.44 0.0 5.28 239 4.09811e-14 1 0
241 1 58.71 0.0 3.52 3.52 0 0.0 1 0
242 1 58.71 1.76 5.28 3.52 0 0.0 1 0
243 1 58.71 1.76 3.52 5.28 0 0.0 1 0
244 1 58.71 0.0 5.28 5.28 0 0.0 1 0
245 1 58.71 3.52 3.52 3.52 0 0.0 1 0
246 1 58.71 5.28 5.28 3.52 0 0.0 1 0
247 1 58.71 5.28 3.52 5.28 0 0.0 1 0
248 1 58.71 3.52 5.28 5.28 0 0.0 1 0
249 1 58.71 7.04 3.52 3.52 0 0.0 1 0
252 1 58.71 7.04 5.28 5.28 0 0.0 1 0
250 1 58.71 8.8 5.28 3.52 0 0.0 1 0
251 1 58.71 8.8 3.52 5.28 0 0.0 1 0
253 1 58.71 10.56 3.52 3.52 0 0.0 1 0
256 1 58.71 10.56 5.28 5.28 0 0.0 1 0
254 1 58.71 12.32 5.28 3.52 0 0.0 1 0
255 1 58.71 12.32 3.52 5.28 0 0.0 1 0
257 1 58.71 14.08 3.52 3.52 0 0.0 1 0
258 1 58.71 15.84 5.28 3.52 0 0.0 1 0
259 1 58.71 15.84 3.52 5.28 0 0.0 1 0
260 1 58.71 14.08 5.28 5.28 0 0.0 1 0
261 1 58.71 17.6 3.52 3.52 261 -1.99788e-14 1 0
264 1 58.71 17.6 5.28 5.28 264 -2.01887e-14 1 0
262 1 58.71 19.36 5.28 3.52 262 2.0298e-14 1 0
263 1 58.71 19.36 3.52 5.28 263 2.0154e-14 1 0
265 1 58.71 21.12 3.52 3.52 265 -2.01714e-14 1 0
268 1 58.71 21.12 5.28 5.28 268 -2.02026e-14 1 0
266 1 58.71 22.88 5.28 3.52 266 2.03405e-14 1 0
267 1 58.71 22.88 3.52 5.28 267 2.035e-14 1 0
269 1 58.71 24.64 3.52 3.52 269 -2.01176e-14 1 0
270 1 58.71 26.4 5.28 3.52 270 1.9559e-14 1 0
271 1 58.71 26.4 3.52 5.28 271 1.97047e-14 1 0
272 1 58.71 24.64 5.28 5.28 272 -2.00603e-14 1 0
273 1 58.71 28.16 3.52 3.52 273 -8.50015e-17 1 0
276 1 58.71 28.16 5.28 5.28 276 -1.38778e-16 1 0
274 1 58.71 29.92 5.28 3.52 274 -1.89336e-14 1 0
275 1 58.71 29.92 3.52 5.28 275 -1.92624e-14 1 0
277 1 58.71 31.68 3.52 3.52 277 -4.16334e-16 1 0
280 1 58.71 31.68 5.28 5.28 280 -4.19803e-16 1 0
278 1 58.71 33.44 5.28 3.52 278 4.27644e-14 1 0
279 1 58.71 33.44 3.52 5.28 279 4.29518e-14 1 0
281 1 58.71 0.0 7.04 3.52 0 0.0 1 0
283 1 58.71 1.76 7.04 5.28 0 0.0 1 0
285 1 58.71 3.52 7.04 3.52 0 0.0 1 0
287 1 58.71 5.28 7.04 5.28 0 0.0 1 0
289 1 58.71 7.04 7.04 3.52 0 0.0 1 0
291 1 58.71 8.8 7.04 5.28 0 0.0 1 0
293 1 58.71 10.56 7.04 3.52 0 0.0 1 0
295 1 58.71 12.32 7.04 5.28 0 0.0 1 0
297 1 58.71 14.08 7.04 3.52 0 0.0 1 0
299 1 58.71 15.84 7.04 5.28 0 0.0 1 0
301 1 58.71 17.6 7.04 3.52 301 -1.98817e-14 1 0
303 1 58.71 19.36 7.04 5.28 303 2.03232e-14 1 0
305 1 58.71 21.12 7.04 3.52 305 -2.01592e-14 1 0
307 1 58.71 22.88 7.04 5.28 307 2.03752e-14 1 0
309 1 58.71 24.64 7.04 3.52 309 -2.02702e-14 1 0
311 1 58.71 26.4 7.04 5.28 311 1.98131e-14 1 0
313 1 58.71 28.16 7.04 3.52 313 -2.15106e-16 1 0
315 1 58.71 29.92 7.04 5.28 315 -1.86292e-14 1 0
317 1 58.71 31.68 7.04 3.52 317 -6.03684e-16 1 0
319 1 58.71 33.44 7.04 5.28 319 4.17583e-14 1 0
282 1 58.71 1.76 8.8 3.52 0 0.0 1 0
284 1 58.71 0.0 8.8 5.28 0 0.0 1 0
321 1 58.71 0.0 10.56 3.52 0 0.0 1 0
323 1 58.71 1.76 10.56 5.28 0 0.0 1 0
286 1 58.71 5.28 8.8 3.52 0 0.0 1 0
288 1 58.71 3.52 8.8 5.28 0 0.0 1 0
325 1 58.71 3.52 10.56 3.52 0 0.0 1 0
327 1 58.71 5.28 10.56 5.28 0 0.0 1 0
292 1 58.71 7.04 8.8 5.28 0 0.0 1 0
329 1 58.71 7.04 10.56 3.52 0 0.0 1 0
290 1 58.71 8.8 8.8 3.52 0 0.0 1 0
296 1 58.71 10.56 8.8 5.28 0 0.0 1 0
331 1 58.71 8.8 10.56 5.28 0 0.0 1 0
333 1 58.71 10.56 10.56 3.52 0 0.0 1 0
294 1 58.71 12.32 8.8 3.52 0 0.0 1 0
335 1 58.71 12.32 10.56 5.28 0 0.0 1 0
298 1 58.71 15.84 8.8 3.52 0 0.0 1 0
300 1 58.71 14.08 8.8 5.28 0 0.0 1 0
337 1 58.71 14.08 10.56 3.52 0 0.0 1 0
339 1 58.71 15.84 10.56 5.28 0 0.0 1 0
304 1 58.71 17.6 8.8 5.28 304 -1.97446e-14 1 0
341 1 58.71 17.6 10.56 3.52 341 -1.86882e-14 1 0
302 1 58.71 19.36 8.8 3.52 302 2.01592e-14 1 0
308 1 58.71 21.12 8.8 5.28 308 -2.03691e-14 1 0
343 1 58.71 19.36 10.56 5.28 343 1.93873e-14 1 0
345 1 58.71 21.12 10.56 3.52 345 -1.92155e-14 1 0
306 1 58.71 22.88 8.8 3.52 306 2.01731e-14 1 0
347 1 58.71 22.88 10.56 5.28 347 1.9389e-14 1 0
310 1 58.71 26.4 8.8 3.52 310 1.97221e-14 1 0
312 1 58.71 24.64 8.8 5.28 312 -2.03362e-14 1 0
349 1 58.71 24.64 10.56 3.52 349 -1.89753e-14 1 0
351 1 58.71 26.4 10.56 5.28 351 1.85806e-14 1 0
316 1 58.71 28.16 8.8 5.28 316 -1.96024e-16 1 0
353 1 58.71 28.16 10.56 3.52 353 -1.56125e-17 1 0
314 1 58.71 29.92 8.8 3.52 314 -1.91947e-14 1 0
320 1 58.71 31.68 8.8 5.28 320 -7.2338e-16 1 0
355 1 58.71 29.92 10.56 5.28 355 -1.76855e-14 1 0
357 1 58.71 31.68 10.56 3.52 357 -7.73687e-16 1 0
318 1 58.71 33.44 8.8 3.52 318 4.16472e-14 1 0
359 1 58.71 33.44 10.56 5.28 359 4.24036e-14 1 0
322 1 58.71 1.76 12.32 3.52 0 0.0 1 0
324 1 58.71 0.0 12.32 5.28 0 0.0 1 0
361 1 58.71 0.0 14.08 3.52 0 0.0 1 0
363 1 58.71 1.76 14.08 5.28 0 0.0 1 0
326 1 58.71 5.28 12.32 3.52 0 0.0 1 0
328 1 58.71 3.52 12.32 5.28 0 0.0 1 0
365 1 58.71 3.52 14.08 3.52 0 0.0 1 0
367 1 58.71 5.28 14.08 5.28 0 0.0 1 0
332 1 58.71 7.04 12.32 5.28 0 0.0 1 0
369 1 58.71 7.04 14.08 3.52 0 0.0 1 0
330 1 58.71 8.8 12.32 3.52 0 0.0 1 0
336 1 58.71 10.56 12.32 5.28 0 0.0 1 0
371 1 58.71 8.8 14.08 5.28 0 0.0 1 0
373 1 58.71 10.56 14.08 3.52 0 0.0 1 0
334 1 58.71 12.32 12.32 3.52 0 0.0 1 0
375 1 58.71 12.32 14.08 5.28 0 0.0 1 0
338 1 58.71 15.84 12.32 3.52 0 0.0 1 0
340 1 58.71 14.08 12.32 5.28 0 0.0 1 0
377 1 58.71 14.08 14.08 3.52 0 0.0 1 0
379 1 58.71 15.84 14.08 5.28 0 0.0 1 0
344 1 58.71 17.6 12.32 5.28 344 -1.88773e-14 1 0
381 1 58.71 17.6 14.08 3.52 381 -1.90551e-14 1 0
342 1 58.71 19.36 12.32 3.52 342 1.90108e-14 1 0
348 1 58.71 21.12 12.32 5.28 348 -1.9526e-14 1 0
383 1 58.71 19.36 14.08 5.28 383 1.91375e-14 1 0
385 1 58.71 21.12 14.08 3.52 385 -1.94367e-14 1 0
346 1 58.71 22.88 12.32 3.52 346 1.91748e-14 1 0
387 1 58.71 22.88 14.08 5.28 387 1.89432e-14 1 0
350 1 58.71 26.4 12.32 3.52 350 1.86014e-14 1 0
352 1 58.71 24.64 12.32 5.28 352 -1.90386e-14 1 0
389 1 58.71 24.64 14.08 3.52 389 -1.8853e-14 1 0
391 1 58.71 26.4 14.08 5.28 391 1.86674e-14 1 0
356 1 58.71 28.16 12.32 5.28 356 -1.56125e-16 1 0
393 1 58.71 28.16 14.08 3.52 393 -3.46945e-18 1 0
354 1 58.71 29.92 12.32 3.52 354 -1.78026e-14 1 0
360 1 58.71 31.68 12.32 5.28 360 -5.70724e-16 1 0
395 1 58.71 29.92 14.08 5.28 395 -1.7486e-14 1 0
397 1 58.71 31.68 14.08 3.52 397 -7.91034e-16 1 0
358 1 58.71 33.44 12.32 3.52 358 4.15085e-14 1 0
399 1 58.71 33.44 14.08 5.28 399 4.15779e-14 1 0
362 1 58.71 1.76 15.84 3.52 0 0.0 1 0
364 1 58.71 0.0 15.84 5.28 0 0.0 1 0
366 1 58.71 5.28 15.84 3.52 0 0.0 1 0
368 1 58.71 3.52 15.84 5.28 0 0.0 1 0
372 1 58.71 7.04 15.84 5.28 0 0.0 1 0
370 1 58.71 8.8 15.84 3.52 0 0.0 1 0
376 1 58.71 10.56 15.84 5.28 0 0.0 1 0
374 1 58.71 12.32 15.84 3.52 0 0.0 1 0
378 1 58.71 15.84 15.84 3.52 0 0.0 1 0
380 1 58.71 14.08 15.84 5.28 0 0.0 1 0
384 1 58.71 17.6 15.84 5.28 384 -2.02893e-14 1 0
382 1 58.71 19.36 15.84 3.52 382 2.0468e-14 1 0
388 1 58.71 21.12 15.84 5.28 388 -2.03362e-14 1 0
386 1 58.71 22.88 15.84 3.52 386 2.03466e-14 1 0
390 1 58.71 26.4 15.84 3.52 390 2.0043e-14 1 0
392 1 58.71 24.64 15.84 5.28 392 -2.02772e-14 1 0
396 1 58.71 28.16 15.84 5.28 396 -5.18682e-16 1 0
394 1 58.71 29.92 15.84 3.52 394 -1.87567e-14 1 0
400 1 58.71 31.68 15.84 5.28 400 -7.65013e-16 1 0
398 1 58.71 33.44 15.84 3.52 398 4.1335e-14 1 0
401 1 58.71 0.0 0.0 7.04 0 0.0 1 0
402 1 58.71 1.76 1.76 7.04 0 0.0 1 0
405 1 58.71 3.52 0.0 7.04 0 0.0 1 0
406 1 58.71 5.28 1.76 7.04 0 0.0 1 0
409 1 58.71 7.04 0.0 7.04 0 0.0 1 0
410 1 58.71 8.8 1.76 7.04 0 0.0 1 0
413 1 58.71 10.56 0.0 7.04 0 0.0 1 0
414 1 58.71 12.32 1.76 7.04 0 0.0 1 0
417 1 58.71 14.08 0.0 7.04 0 0.0 1 0
418 1 58.71 15.84 1.76 7.04 0 0.0 1 0
421 1 58.71 17.6 0.0 7.04 421 -1.91253e-14 1 0
422 1 58.71 19.36 1.76 7.04 422 1.9252e-14 1 0
425 1 58.71 21.12 0.0 7.04 425 -1.93751e-14 1 0
426 1 58.71 22.88 1.76 7.04 426 1.92433e-14 1 0
429 1 58.71 24.64 0.0 7.04 429 -1.93751e-14 1 0
430 1 58.71 26.4 1.76 7.04 430 1.87567e-14 1 0
433 1 58.71 28.16 0.0 7.04 433 -1.56125e-17 1 0
434 1 58.71 29.92 1.76 7.04 434 -1.83751e-14 1 0
437 1 58.71 31.68 0.0 7.04 437 -4.71845e-16 1 0
438 1 58.71 33.44 1.76 7.04 438 4.08909e-14 1 0
441 1 58.71 0.0 3.52 7.04 0 0.0 1 0
442 1 58.71 1.76 5.28 7.04 0 0.0 1 0
445 1 58.71 3.52 3.52 7.04 0 0.0 1 0
446 1 58.71 5.28 5.28 7.04 0 0.0 1 0
449 1 58.71 7.04 3.52 7.04 0 0.0 1 0
450 1 58.71 8.8 5.28 7.04 0 0.0 1 0
453 1 58.71 10.56 3.52 7.04 0 0.0 1 0
454 1 58.71 12.32 5.28 7.04 0 0.0 1 0
457 1 58.71 14.08 3.52 7.04 0 0.0 1 0
458 1 58.71 15.84 5.28 7.04 0 0.0 1 0
461 1 58.71 17.6 3.52 7.04 461 -1.99771e-14 1 0
462 1 58.71 19.36 5.28 7.04 462 2.02199e-14 1 0
465 1 58.71 21.12 3.52 7.04 465 -2.03379e-14 1 0
466 1 58.71 22.88 5.28 7.04 466 2.03865e-14 1 0
469 1 58.71 24.64 3.52 7.04 469 -2.02928e-14 1 0
470 1 58.71 26.4 5.28 7.04 470 1.9925e-14 1 0
473 1 58.71 28.16 3.52 7.04 473 -3.81639e-17 1 0
474 1 58.71 29.92 5.28 7.04 474 -1.91739e-14 1 0
477 1 58.71 31.68 3.52 7.04 477 -5.58581e-16 1 0
478 1 58.71 33.44 5.28 7.04 478 4.18207e-14 1 0
481 1 58.71 0.0 7.04 7.04 0 0.0 1 0
485 1 58.71 3.52 7.04 7.04 0 0.0 1 0
489 1 58.71 7.04 7.04 7.04 0 0.0 1 0
493 1 58.71 10.56 7.04 7.04 0 0.0 1 0
497 1 58.71 14.08 7.04 7.04 0 0.0 1 0
501 1 58.71 17.6 7.04 7.04 501 -1.98834e-14 1 0
505 1 58.71 21.12 7.04 7.04 505 -2.03223e-14 1 0
509 1 58.71 24.64 7.04 7.04 509 -2.04298e-14 1 0
513 1 58.71 28.16 7.04 7.04 513 -2.43729e-16 1 0
517 1 58.71 31.68 7.04 7.04 517 -5.96745e-16 1 0
482 1 58.71 1.76 8.8 7.04 0 0.0 1 0
521 1 58.71 0.0 10.56 7.04 0 0.0 1 0
486 1 58.71 5.28 8.8 7.04 0 0.0 1 0
525 1 58.71 3.52 10.56 7.04 0 0.0 1 0
529 1 58.71 7.04 10.56 7.04 0 0.0 1 0
490 1 58.71 8.8 8.8 7.04 0 0.0 1 0
533 1 58.71 10.56 10.56 7.04 0 0.0 1 0
494 1 58.71 12.32 8.8 7.04 0 0.0 1 0
498 1 58.71 15.84 8.8 7.04 0 0.0 1 0
537 1 58.71 14.08 10.56 7.04 0 0.0 1 0
541 1 58.71 17.6 10.56 7.04 541 -1.86413e-14 1 0
502 1 58.71 19.36 8.8 7.04 502 2.01245e-14 1 0
545 1 58.71 21.12 10.56 7.04 545 -1.9245e-14 1 0
506 1 58.71 22.88 8.8 7.04 506 2.01401e-14 1 0
510 1 58.71 26.4 8.8 7.04 510 1.98539e-14 1 0
549 1 58.71 24.64 10.56 7.04 549 -1.92103e-14 1 0
553 1 58.71 28.16 10.56 7.04 553 -1.38778e-16 1 0
514 1 58.71 29.92 8.8 7.04 514 -1.94835e-14 1 0
557 1 58.71 31.68 10.56 7.04 557 -7.18176e-16 1 0
518 1 58.71 33.44 8.8 7.04 518 4.06897e-14 1 0
522 1 58.71 1.76 12.32 7.04 0 0.0 1 0
561 1 58.71 0.0 14.08 7.04 0 0.0 1 0
526 1 58.71 5.28 12.32 7.04 0 0.0 1 0
565 1 58.71 3.52 14.08 7.04 0 0.0 1 0
569 1 58.71 7.04 14.08 7.04 0 0.0 1 0
530 1 58.71 8.8 12.32 7.04 0 0.0 1 0
573 1 58.71 10.56 14.08 7.04 0 0.0 1 0
534 1 58.71 12.32 12.32 7.04 0 0.0 1 0
538 1 58.71 15.84 12.32 7.04 0 0.0 1 0
577 1 58.71 14.08 14.08 7.04 0 0.0 1 0
581 1 58.71 17.6 14.08 7.04 581 -1.89371e-14 1 0
542 1 58.71 19.36 12.32 7.04 542 1.92086e-14 1 0
585 1 58.71 21.12 14.08 7.04 585 -1.90204e-14 1 0
546 1 58.71 22.88 12.32 7.04 546 1.92069e-14 1 0
550 1 58.71 26.4 12.32 7.04 550 1.83759e-14 1 0
589 1 58.71 24.64 14.08 7.04 589 -1.89909e-14 1 0
593 1 58.71 28.16 14.08 7.04 593 -3.88578e-16 1 0
554 1 58.71 29.92 12.32 7.04 554 -1.75363e-14 1 0
597 1 58.71 31.68 14.08 7.04 597 -6.14092e-16 1 0
558 1 58.71 33.44 12.32 7.04 558 4.08285e-14 1 0
562 1 58.71 1.76 15.84 7.04 0 0.0 1 0
566 1 58.71 5.28 15.84 7.04 0 0.0 1 0
570 1 58.71 8.8 15.84 7.04 0 0.0 1 0
574 1 58.71 12.32 15.84 7.04 0 0.0 1 0
578 1 58.71 15.84 15.84 7.04 0 0.0 1 0
582 1 58.71 19.36 15.84 7.04 582 2.05547e-14 1 0
586 1 58.71 22.88 15.84 7.04 586 2.06129e-14 1 0
590 1 58.71 26.4 15.84 7.04 590 2.01558e-14 1 0
594 1 58.71 29.92 15.84 7.04 594 -1.8944e-14 1 0
598 1 58.71 33.44 15.84 7.04 598 4.04121e-14 1 0
403 1 58.71 1.76 0.0 8.8 0 0.0 1 0
404 1 58.71 0.0 1.76 8.8 0 0.0 1 0
601 1 58.71 0.0 0.0 10.56 0 0.0 1 0
602 1 58.71 1.76 1.76 10.56 0 0.0 1 0
407 1 58.71 5.28 0.0 8.8 0 0.0 1 0
408 1 58.71 3.52 1.76 8.8 0 0.0 1 0
605 1 58.71 3.52 0.0 10.56 0 0.0 1 0
606 1 58.71 5.28 1.76 10.56 0 0.0 1 0
412 1 58.71 7.04 1.76 8.8 0 0.0 1 0
609 1 58.71 7.04 0.0 10.56 0 0.0 1 0
411 1 58.71 8.8 0.0 8.8 0 0.0 1 0
416 1 58.71 10.56 1.76 8.8 0 0.0 1 0
610 1 58.71 8.8 1.76 10.56 0 0.0 1 0
613 1 58.71 10.56 0.0 10.56 0 0.0 1 0
415 1 58.71 12.32 0.0 8.8 0 0.0 1 0
614 1 58.71 12.32 1.76 10.56 0 0.0 1 0
419 1 58.71 15.84 0.0 8.8 0 0.0 1 0
420 1 58.71 14.08 1.76 8.8 0 0.0 1 0
617 1 58.71 14.08 0.0 10.56 0 0.0 1 0
618 1 58.71 15.84 1.76 10.56 0 0.0 1 0
424 1 58.71 17.6 1.76 8.8 424 -1.89744e-14 1 0
621 1 58.71 17.6 0.0 10.56 621 -1.80272e-14 1 0
423 1 58.71 19.36 0.0 8.8 423 1.97082e-14 1 0
428 1 58.71 21.12 1.76 8.8 428 -1.9389e-14 1 0
622 1 58.71 19.36 1.76 10.56 622 1.79743e-14 1 0
625 1 58.71 21.12 0.0 10.56 625 -1.84644e-14 1 0
427 1 58.71 22.88 0.0 8.8 427 1.96926e-14 1 0
626 1 58.71 22.88 1.76 10.56 626 1.79743e-14 1 0
431 1 58.71 26.4 0.0 8.8 431 1.87229e-14 1 0
432 1 58.71 24.64 1.76 8.8 432 -1.93335e-14 1 0
629 1 58.71 24.64 0.0 10.56 629 -1.8447e-14 1 0
630 1 58.71 26.4 1.76 10.56 630 1.75407e-14 1 0
436 1 58.71 28.16 1.76 8.8 436 -6.245e-17 1 0
633 1 58.71 28.16 0.0 10.56 633 1.73472e-18 1 0
435 1 58.71 29.92 0.0 8.8 435 -1.77124e-14 1 0
440 1 58.71 31.68 1.76 8.8 440 -7.70217e-16 1 0
634 1 58.71 29.92 1.76 10.56 634 -1.6433e-14 1 0
637 1 58.71 31.68 0.0 10.56 637 -3.29597e-16 1 0
439 1 58.71 33.44 0.0 8.8 439 3.95656e-14 1 0
638 1 58.71 33.44 1.76 10.56 638 4.07903e-14 1 0
443 1 58.71 1.76 3.52 8.8 0 0.0 1 0
444 1 58.71 0.0 5.28 8.8 0 0.0 1 0
641 1 58.71 0.0 3.52 10.56 0 0.0 1 0
642 1 58.71 1.76 5.28 10.56 0 0.0 1 0
447 1 58.71 5.28 3.52 8.8 0 0.0 1 0
448 1 58.71 3.52 5.28 8.8 0 0.0 1 0
645 1 58.71 3.52 3.52 10.56 0 0.0 1 0
646 1 58.71 5.28 5.28 10.56 0 0.0 1 0
452 1 58.71 7.04 5.28 8.8 0 0.0 1 0
649 1 58.71 7.04 3.52 10.56 0 0.0 1 0
451 1 58.71 8.8 3.52 8.8 0 0.0 1 0
456 1 58.71 10.56 5.28 8.8 0 0.0 1 0
650 1 58.71 8.8 5.28 10.56 0 0.0 1 0
653 1 58.71 10.56 3.52 10.56 0 0.0 1 0
455 1 58.71 12.32 3.52 8.8 0 0.0 1 0
654 1 58.71 12.32 5.28 10.56 0 0.0 1 0
459 1 58.71 15.84 3.52 8.8 0 0.0 1 0
460 1 58.71 14.08 5.28 8.8 0 0.0 1 0
657 1 58.71 14.08 3.52 10.56 0 0.0 1 0
658 1 58.71 15.84 5.28 10.56 0 0.0 1 0
464 1 58.71 17.6 5.28 8.8 464 -2.00031e-14 1 0
661 1 58.71 17.6 3.52 10.56 661 -1.88417e-14 1 0
463 1 58.71 19.36 3.52 8.8 463 2.02043e-14 1 0
468 1 58.71 21.12 5.28 8.8 468 -2.04073e-14 1 0
662 1 58.71 19.36 5.28 10.56 662 1.92381e-14 1 0
665 1 58.71 21.12 3.52 10.56 665 -1.91748e-14 1 0
467 1 58.71 22.88 3.52 8.8 467 2.0383e-14 1 0
666 1 58.71 22.88 5.28 10.56 666 1.93803e-14 1 0
471 1 58.71 26.4 3.52 8.8 471 1.98782e-14 1 0
472 1 58.71 24.64 5.28 8.8 472 -2.03761e-14 1 0
669 1 58.71 24.64 3.52 10.56 669 -1.90039e-14 1 0
670 1 58.71 26.4 5.28 10.56 670 1.87472e-14 1 0
476 1 58.71 28.16 5.28 8.8 476 -2.77556e-17 1 0
673 1 58.71 28.16 3.52 10.56 673 -1.73472e-18 1 0
475 1 58.71 29.92 3.52 8.8 475 -1.91288e-14 1 0
480 1 58.71 31.68 5.28 8.8 480 -7.14706e-16 1 0
674 1 58.71 29.92 5.28 10.56 674 -1.80351e-14 1 0
677 1 58.71 31.68 3.52 10.56 677 -5.6205e-16 1 0
479 1 58.71 33.44 3.52 8.8 479 4.17305e-14 1 0
678 1 58.71 33.44 5.28 10.56 678 4.27124e-14 1 0
483 1 58.71 1.76 7.04 8.8 0 0.0 1 0
681 1 58.71 0.0 7.04 10.56 0 0.0 1 0
487 1 58.71 5.28 7.04 8.8 0 0.0 1 0
685 1 58.71 3.52 7.04 10.56 0 0.0 1 0
689 1 58.71 7.04 7.04 10.56 0 0.0 1 0
491 1 58.71 8.8 7.04 8.8 0 0.0 1 0
693 1 58.71 10.56 7.04 10.56 0 0.0 1 0
495 1 58.71 12.32 7.04 8.8 0 0.0 1 0
499 1 58.71 15.84 7.04 8.8 0 0.0 1 0
697 1 58.71 14.08 7.04 10.56 0 0.0 1 0
701 1 58.71 17.6 7.04 10.56 701 -1.86327e-14 1 0
503 1 58.71 19.36 7.04 8.8 503 2.01315e-14 1 0
705 1 58.71 21.12 7.04 10.56 705 -1.92155e-14 1 0
507 1 58.71 22.88 7.04 8.8 507 2.01315e-14 1 0
511 1 58.71 26.4 7.04 8.8 511 1.99996e-14 1 0
709 1 58.71 24.64 7.04 10.56 709 -1.91843e-14 1 0
713 1 58.71 28.16 7.04 10.56 713 -4.51028e-17 1 0
515 1 58.71 29.92 7.04 8.8 515 -1.96301e-14 1 0
717 1 58.71 31.68 7.04 10.56 717 -7.32053e-16 1 0
519 1 58.71 33.44 7.04 8.8 519 4.06064e-14 1 0
484 1 58.71 0.0 8.8 8.8 0 0.0 1 0
523 1 58.71 1.76 10.56 8.8 0 0.0 1 0
682 1 58.71 1.76 8.8 10.56 0 0.0 1 0
721 1 58.71 0.0 10.56 10.56 0 0.0 1 0
488 1 58.71 3.52 8.8 8.8 0 0.0 1 0
527 1 58.71 5.28 10.56 8.8 0 0.0 1 0
686 1 58.71 5.28 8.8 10.56 0 0.0 1 0
725 1 58.71 3.52 10.56 10.56 0 0.0 1 0
492 1 58.71 7.04 8.8 8.8 0 0.0 1 0
729 1 58.71 7.04 10.56 10.56 0 0.0 1 0
496 1 58.71 10.56 8.8 8.8 0 0.0 1 0
531 1 58.71 8.8 10.56 8.8 0 0.0 1 0
690 1 58.71 8.8 8.8 10.56 0 0.0 1 0
733 1 58.71 10.56 10.56 10.56 0 0.0 1 0
535 1 58.71 12.32 10.56 8.8 0 0.0 1 0
694 1 58.71 12.32 8.8 10.56 0 0.0 1 0
500 1 58.71 14.08 8.8 8.8 0 0.0 1 0
539 1 58.71 15.84 10.56 8.8 0 0.0 1 0
698 1 58.71 15.84 8.8 10.56 0 0.0 1 0
737 1 58.71 14.08 10.56 10.56 0 0.0 1 0
504 1 58.71 17.6 8.8 8.8 504 -1.98522e-14 1 0
741 1 58.71 17.6 10.56 10.56 741 -1.77488e-14 1 0
508 1 58.71 21.12 8.8 8.8 508 -2.01401e-14 1 0
543 1 58.71 19.36 10.56 8.8 543 1.90637e-14 1 0
702 1 58.71 19.36 8.8 10.56 702 1.91748e-14 1 0
745 1 58.71 21.12 10.56 10.56 745 -1.82588e-14 1 0
547 1 58.71 22.88 10.56 8.8 547 1.92303e-14 1 0
706 1 58.71 22.88 8.8 10.56 706 1.92025e-14 1 0
512 1 58.71 24.64 8.8 8.8 512 -2.00569e-14 1 0
551 1 58.71 26.4 10.56 8.8 551 1.87107e-14 1 0
710 1 58.71 26.4 8.8 10.56 710 1.83594e-14 1 0
749 1 58.71 24.64 10.56 10.56 749 -1.81131e-14 1 0
516 1 58.71 28.16 8.8 8.8 516 -2.08167e-16 1 0
753 1 58.71 28.16 10.56 10.56 753 -1.56125e-16 1 0
520 1 58.71 31.68 8.8 8.8 520 -4.64906e-16 1 0
555 1 58.71 29.92 10.56 8.8 555 -1.75736e-14 1 0
714 1 58.71 29.92 8.8 10.56 714 -1.75198e-14 1 0
757 1 58.71 31.68 10.56 10.56 757 -7.87564e-16 1 0
559 1 58.71 33.44 10.56 8.8 559 4.09256e-14 1 0
718 1 58.71 33.44 8.8 10.56 718 4.09672e-14 1 0
524 1 58.71 0.0 12.32 8.8 0 0.0 1 0
563 1 58.71 1.76 14.08 8.8 0 0.0 1 0
722 1 58.71 1.76 12.32 10.56 0 0.0 1 0
761 1 58.71 0.0 14.08 10.56 0 0.0 1 0
528 1 58.71 3.52 12.32 8.8 0 0.0 1 0
567 1 58.71 5.28 14.08 8.8 0 0.0 1 0
726 1 58.71 5.28 12.32 10.56 0 0.0 1 0
765 1 58.71 3.52 14.08 10.56 0 0.0 1 0
532 1 58.71 7.04 12.32 8.8 0 0.0 1 0
769 1 58.71 7.04 14.08 10.56 0 0.0 1 0
536 1 58.71 10.56 12.32 8.8 0 0.0 1 0
571 1 58.71 8.8 14.08 8.8 0 0.0 1 0
730 1 58.71 8.8 12.32 10.56 0 0.0 1 0
773 1 58.71 10.56 14.08 10.56 0 0.0 1 0
575 1 58.71 12.32 14.08 8.8 0 0.0 1 0
734 1 58.71 12.32 12.32 10.56 0 0.0 1 0
540 1 58.71 14.08 12.32 8.8 0 0.0 1 0
579 1 58.71 15.84 14.08 8.8 0 0.0 1 0
738 1 58.71 15.84 12.32 10.56 0 0.0 1 0
777 1 58.71 14.08 14.08 10.56 0 0.0 1 0
544 1 58.71 17.6 12.32 8.8 544 -1.87784e-14 1 0
781 1 58.71 17.6 14.08 10.56 781 -1.74444e-14 1 0
548 1 58.71 21.12 12.32 8.8 548 -1.91843e-14 1 0
583 1 58.71 19.36 14.08 8.8 583 1.90464e-14 1 0
742 1 58.71 19.36 12.32 10.56 742 1.80758e-14 1 0
785 1 58.71 21.12 14.08 10.56 785 -1.81105e-14 1 0
587 1 58.71 22.88 14.08 8.8 587 1.92233e-14 1 0
746 1 58.71 22.88 12.32 10.56 746 1.82285e-14 1 0
552 1 58.71 24.64 12.32 8.8 552 -1.89692e-14 1 0
591 1 58.71 26.4 14.08 8.8 591 1.87289e-14 1 0
750 1 58.71 26.4 12.32 10.56 750 1.7094e-14 1 0
789 1 58.71 24.64 14.08 10.56 789 -1.79579e-14 1 0
556 1 58.71 28.16 12.32 8.8 556 -3.95517e-16 1 0
793 1 58.71 28.16 14.08 10.56 793 -3.19189e-16 1 0
560 1 58.71 31.68 12.32 8.8 560 -7.70217e-16 1 0
595 1 58.71 29.92 14.08 8.8 595 -1.77159e-14 1 0
754 1 58.71 29.92 12.32 10.56 754 -1.65198e-14 1 0
797 1 58.71 31.68 14.08 10.56 797 -6.47052e-16 1 0
599 1 58.71 33.44 14.08 8.8 599 4.06897e-14 1 0
758 1 58.71 33.44 12.32 10.56 758 4.17166e-14 1 0
564 1 58.71 0.0 15.84 8.8 0 0.0 1 0
762 1 58.71 1.76 15.84 10.56 0 0.0 1 0
568 1 58.71 3.52 15.84 8.8 0 0.0 1 0
766 1 58.71 5.28 15.84 10.56 0 0.0 1 0
572 1 58.71 7.04 15.84 8.8 0 0.0 1 0
576 1 58.71 10.56 15.84 8.8 0 0.0 1 0
770 1 58.71 8.8 15.84 10.56 0 0.0 1 0
774 1 58.71 12.32 15.84 10.56 0 0.0 1 0
580 1 58.71 14.08 15.84 8.8 0 0.0 1 0
778 1 58.71 15.84 15.84 10.56 0 0.0 1 0
584 1 58.71 17.6 15.84 8.8 584 -2.02303e-14 1 0
588 1 58.71 21.12 15.84 8.8 588 -2.06207e-14 1 0
782 1 58.71 19.36 15.84 10.56 782 1.91817e-14 1 0
786 1 58.71 22.88 15.84 10.56 786 1.90429e-14 1 0
592 1 58.71 24.64 15.84 8.8 592 -2.03917e-14 1 0
790 1 58.71 26.4 15.84 10.56 790 1.87255e-14 1 0
596 1 58.71 28.16 15.84 8.8 596 -3.55618e-16 1 0
600 1 58.71 31.68 15.84 8.8 600 -6.00214e-16 1 0
794 1 58.71 29.92 15.84 10.56 794 -1.76161e-14 1 0
798 1 58.71 33.44 15.84 10.56 798 4.06203e-14 1 0