ITEM: TIMESTEP
700
ITEM: NUMBER OF ATOMS
4000
ITEM: BOX BOUNDS pp pp pp
0.0 35.2
0.0 35.2
0.0 35.2
ITEM: ATOMS id type mass x y z c_1[1] c_1[2] structure_types fault_types 
1000 1 58.71 31.7262 15.8672 15.8647 1000 -0.684772 1 0
3029 1 58.71 24.5586 17.5635 17.5679 3029 0.151442 1 0
996 1 58.71 28.1592 15.848 15.9095 996 0.102724 1 0
4 1 58.71 35.1555 1.9104 1.72478 0 0.0 1 0
992 1 58.71 24.6484 15.8319 15.8454 992 -0.288664 1 0
98 1 58.71 15.8682 8.8213 0.046571 0 0.0 1 0
988 1 58.71 20.9757 15.8769 15.8458 988 0.987552 1 0
8 1 58.71 3.49423 1.76253 1.73796 0 0.0 1 0
984 1 58.71 17.5406 15.9107 15.8893 984 -0.0224796 1 0
12 1 58.71 7.06126 1.70372 1.71501 0 0.0 1 0
7 1 58.71 5.33888 0.0633247 1.70974 0 0.0 1 0
980 1 58.71 13.9573 15.8734 15.6644 0 0.0 1 0
976 1 58.71 10.4508 15.777 15.9486 0 0.0 1 0
16 1 58.71 10.6135 1.76326 1.72373 0 0.0 1 0
3 1 58.71 1.79563 0.135772 1.74547 0 0.0 1 0
972 1 58.71 6.979 15.7947 15.9316 0 0.0 1 0
1037 1 58.71 31.6757 0.0354061 17.5355 1037 0.122859 1 0
122 1 58.71 1.80068 12.297 0.0526697 0 0.0 1 0
968 1 58.71 3.42466 15.7687 15.8958 0 0.0 1 0
20 1 58.71 14.1482 1.80929 1.66468 0 0.0 1 0
964 1 58.71 35.1421 15.9272 15.7956 0 0.0 1 0
24 1 58.71 17.5956 1.80586 1.67016 24 0.283792 1 0
2403 1 58.71 1.60236 17.5225 8.89788 0 0.0 1 0
999 1 58.71 33.4777 14.0737 15.8931 999 -0.299238 1 0
995 1 58.71 29.8286 14.001 15.8724 995 0.612644 1 0
28 1 58.71 21.1185 1.70671 1.83433 28 0.046634 1 0
31 1 58.71 26.5141 0.00238103 1.76838 31 -0.0119568 1 0
23 1 58.71 19.4198 0.0724095 1.73388 23 -0.773362 1 0
65 1 58.71 21.1053 3.51846 0.0767678 65 0.798503 1 0
2239 1 58.71 33.4904 17.6014 5.31203 2239 -0.821299 1 0
960 1 58.71 31.6432 12.2736 15.9075 960 -0.15419 1 0
32 1 58.71 24.7824 1.87003 1.6273 32 -0.280695 1 0
956 1 58.71 28.1685 12.1957 15.8881 956 -0.45974 1 0
36 1 58.71 28.2104 1.8403 1.68957 36 0.151479 1 0
57 1 58.71 14.0706 3.49882 0.0476073 0 0.0 1 0
2825 1 58.71 21.1235 17.5138 14.0635 2825 -0.647691 1 0
90 1 58.71 8.64692 8.80993 0.164755 0 0.0 1 0
40 1 58.71 31.6834 1.88065 1.69831 40 -0.0562249 1 0
29 1 58.71 24.5654 0.0155552 0.153289 29 1.40936 1 0
1177 1 58.71 13.9384 14.0998 17.4853 0 0.0 1 0
1070 1 58.71 26.3408 5.22697 17.5671 1070 0.31451 1 0
69 1 58.71 24.6662 3.62336 0.0513387 69 0.551426 1 0
43 1 58.71 1.72579 3.5315 1.77245 0 0.0 1 0
44 1 58.71 0.020092 5.34052 1.80859 0 0.0 1 0
207 1 58.71 5.23386 0.0484423 5.17989 0 0.0 1 0
86 1 58.71 5.23519 8.80985 0.110089 0 0.0 1 0
47 1 58.71 5.29652 3.52532 1.66782 0 0.0 1 0
48 1 58.71 3.60505 5.22726 1.81235 0 0.0 1 0
2615 1 58.71 12.2944 17.5999 12.3616 0 0.0 1 0
52 1 58.71 7.02605 5.41969 1.72727 0 0.0 1 0
27 1 58.71 22.812 0.0227156 1.80905 27 0.646125 1 0
51 1 58.71 8.71051 3.57572 1.74692 0 0.0 1 0
11 1 58.71 8.83874 0.0600402 1.70237 0 0.0 1 0
56 1 58.71 10.598 5.26065 1.66694 0 0.0 1 0
209 1 58.71 7.15465 0.0131746 3.46621 0 0.0 1 0
55 1 58.71 12.3099 3.52112 1.62806 0 0.0 1 0
178 1 58.71 15.7989 15.8441 0.0733276 0 0.0 1 0
1130 1 58.71 8.8099 12.2843 17.5956 0 0.0 1 0
59 1 58.71 15.8267 3.51471 1.70975 0 0.0 1 0
60 1 58.71 14.0284 5.20826 1.7833 0 0.0 1 0
6 1 58.71 5.30065 1.82971 0.0112111 0 0.0 1 0
64 1 58.71 17.5939 5.26501 1.77259 64 0.00104638 1 0
221 1 58.71 17.6157 0.0322102 3.53564 221 0.200278 1 0
63 1 58.71 19.3066 3.42741 1.70661 63 0.593972 1 0
201 1 58.71 35.1707 0.0731713 3.49319 0 0.0 1 0
68 1 58.71 21.171 5.23056 1.76964 68 -0.293249 1 0
2805 1 58.71 3.57315 17.4848 14.0884 0 0.0 1 0
67 1 58.71 23.0342 3.49211 1.81222 67 -1.34266 1 0
42 1 58.71 1.80283 5.33573 0.0177926 0 0.0 1 0
2611 1 58.71 8.73744 17.5475 12.3322 0 0.0 1 0
71 1 58.71 26.5402 3.55263 1.83706 71 -0.603198 1 0
72 1 58.71 24.7225 5.31236 1.9394 72 0.269734 1 0
2219 1 58.71 15.9194 17.5995 5.31107 0 0.0 1 0
76 1 58.71 28.3016 5.35753 1.75486 76 -2.04129 1 0
114 1 58.71 29.8899 8.8362 0.0842952 114 0.53484 1 0
75 1 58.71 29.8663 3.69604 1.74419 75 0.89531 1 0
141 1 58.71 17.6483 10.6542 0.0382126 141 -0.24293 1 0
80 1 58.71 31.6359 5.32233 1.77438 80 0.0369495 1 0
154 1 58.71 29.9217 12.3035 0.0861163 154 0.0468426 1 0
79 1 58.71 33.4721 3.67462 1.75574 79 -0.479496 1 0
190 1 58.71 26.4794 15.8248 -0.0000244541 190 0.174714 1 0
83 1 58.71 1.84445 7.04223 1.80732 0 0.0 1 0
66 1 58.71 22.9647 5.319 0.117124 66 0.0218847 1 0
87 1 58.71 5.22763 7.12533 1.7175 0 0.0 1 0
25 1 58.71 21.1376 0.0190996 0.0536796 25 -0.0667296 1 0
91 1 58.71 8.87906 7.00846 1.72105 0 0.0 1 0
30 1 58.71 26.4165 1.74577 0.0105857 30 0.802639 1 0
95 1 58.71 12.3541 7.03405 1.72693 0 0.0 1 0
1081 1 58.71 0.0676435 7.03584 17.589 0 0.0 1 0
99 1 58.71 15.7856 6.98096 1.83882 0 0.0 1 0
1106 1 58.71 22.9464 8.74851 17.5713 1106 0.322934 1 0
103 1 58.71 19.4301 6.97921 1.79681 103 -0.417607 1 0
1194 1 58.71 29.8894 15.834 17.5908 1194 0.784906 1 0
107 1 58.71 22.8953 6.98133 1.73105 107 0.102795 1 0
205 1 58.71 3.45009 0.103638 3.50993 0 0.0 1 0
111 1 58.71 26.4901 7.0404 1.8135 111 0.335323 1 0
26 1 58.71 22.9474 1.80757 0.0899648 26 -0.831121 1 0
115 1 58.71 29.8697 7.00768 1.67408 115 1.47202 1 0
78 1 58.71 33.499 5.36158 0.0124373 78 -0.373011 1 0
119 1 58.71 33.4382 7.03039 1.82778 119 0.0400408 1 0
215 1 58.71 12.4026 0.0532697 5.21923 0 0.0 1 0
84 1 58.71 -0.00819308 8.78887 1.82539 0 0.0 1 0
3033 1 58.71 28.1785 17.4925 17.5781 3033 -0.314125 1 0
123 1 58.71 1.78214 10.4926 1.7461 0 0.0 1 0
1138 1 58.71 15.6065 12.3164 17.4735 0 0.0 1 0
88 1 58.71 3.48639 8.79779 1.9291 0 0.0 1 0
2627 1 58.71 22.8471 17.4602 12.357 2627 -0.018125 1 0
127 1 58.71 5.25695 10.5246 1.92822 0 0.0 1 0
92 1 58.71 6.96378 8.73514 1.88742 0 0.0 1 0
2813 1 58.71 10.5291 17.5495 14.1082 0 0.0 1 0
1186 1 58.71 22.8193 15.7494 17.5703 1186 -0.449623 1 0
96 1 58.71 10.4892 8.86312 1.69148 0 0.0 1 0
131 1 58.71 8.81964 10.5604 1.71332 0 0.0 1 0
85 1 58.71 3.43615 7.07303 0.0593355 0 0.0 1 0
203 1 58.71 1.80413 0.110703 5.39427 0 0.0 1 0
135 1 58.71 12.296 10.6718 1.66888 0 0.0 1 0
1 1 58.71 35.1618 0.0405769 0.0731431 0 0.0 1 0
100 1 58.71 13.9367 8.88388 1.74657 0 0.0 1 0
153 1 58.71 28.1375 10.5241 0.0106167 153 0.333725 1 0
139 1 58.71 15.8186 10.6035 1.78029 0 0.0 1 0
104 1 58.71 17.5751 8.85328 1.72878 104 0.0651198 1 0
217 1 58.71 14.1005 0.138975 3.43422 0 0.0 1 0
2423 1 58.71 19.3548 17.6144 8.84953 2423 -0.112487 1 0
108 1 58.71 21.1502 8.83937 1.77997 108 0.839894 1 0
143 1 58.71 19.3937 10.637 1.71806 143 -0.0270503 1 0
2601 1 58.71 35.1219 17.5755 10.5605 0 0.0 1 0
2635 1 58.71 29.9381 17.6017 12.3241 2635 -0.130969 1 0
147 1 58.71 22.8767 10.6293 1.70623 147 0.0227683 1 0
227 1 58.71 22.9107 0.0909555 5.25625 227 -0.188105 1 0
112 1 58.71 24.6645 8.8503 1.7534 112 0.118889 1 0
2203 1 58.71 1.75017 17.6112 5.29883 0 0.0 1 0
151 1 58.71 26.435 10.5316 1.79892 151 -0.18063 1 0
116 1 58.71 28.1175 8.78592 1.79645 116 0.755266 1 0
1137 1 58.71 13.9733 10.5361 17.4248 0 0.0 1 0
2823 1 58.71 19.4236 17.5984 15.8895 2823 -1.15224 1 0
120 1 58.71 31.8178 8.73573 1.71038 120 -1.09369 1 0
155 1 58.71 29.9732 10.615 1.77693 155 -0.610998 1 0
138 1 58.71 15.8381 12.3597 0.041333 0 0.0 1 0
39 1 58.71 33.4442 0.0302831 1.76726 39 -0.128762 1 0
159 1 58.71 33.5259 10.5027 1.79668 159 -0.624124 1 0
2625 1 58.71 21.0845 17.5214 10.5635 2625 -0.116598 1 0
124 1 58.71 35.1687 12.3473 1.82789 0 0.0 1 0
129 1 58.71 6.96828 10.499 0.0774433 0 0.0 1 0
163 1 58.71 1.74478 14.0689 1.82169 0 0.0 1 0
2005 1 58.71 3.50476 17.5037 0.0321451 0 0.0 1 0
128 1 58.71 3.46651 12.3041 1.78449 0 0.0 1 0
2225 1 58.71 21.2338 17.6148 3.45699 2225 -0.480536 1 0
167 1 58.71 5.22302 14.0621 1.71003 0 0.0 1 0
132 1 58.71 7.07909 12.2558 1.78925 0 0.0 1 0
2831 1 58.71 26.4038 17.5762 15.8436 2831 -0.162703 1 0
102 1 58.71 19.4656 8.84297 0.164554 102 -0.476669 1 0
136 1 58.71 10.5803 12.3778 1.71916 0 0.0 1 0
171 1 58.71 8.78229 14.0763 1.82502 0 0.0 1 0
106 1 58.71 22.9466 8.77269 0.0462393 106 -0.371365 1 0
1193 1 58.71 28.1451 14.1012 17.5154 1193 0.2583 1 0
175 1 58.71 12.281 14.109 1.7611 0 0.0 1 0
1189 1 58.71 24.6177 14.2076 17.5778 1189 0.278492 1 0
140 1 58.71 14.0348 12.425 1.74 0 0.0 1 0
1121 1 58.71 35.1512 10.4846 17.4999 0 0.0 1 0
179 1 58.71 15.8605 14.0166 1.78903 0 0.0 1 0
144 1 58.71 17.6833 12.3303 1.74669 144 -0.345988 1 0
2037 1 58.71 31.6088 17.5588 0.0371744 2037 0.789072 1 0
2605 1 58.71 3.50569 17.5617 10.5991 0 0.0 1 0
148 1 58.71 21.116 12.4253 1.79429 148 0.367458 1 0
183 1 58.71 19.4376 14.0165 1.78723 183 -0.509596 1 0
2421 1 58.71 17.6786 17.5739 7.00529 2421 -0.839047 1 0
235 1 58.71 29.9344 0.0411617 5.19528 235 -0.162982 1 0
187 1 58.71 22.9494 14.095 1.81265 187 -0.582068 1 0
1086 1 58.71 5.27358 8.77967 17.5652 0 0.0 1 0
152 1 58.71 24.6786 12.4794 1.78206 152 -0.0434974 1 0
607 1 58.71 5.21367 0.0844782 12.2642 0 0.0 1 0
191 1 58.71 26.5083 14.0767 1.78689 191 -0.530629 1 0
156 1 58.71 28.2364 12.3948 1.86543 156 -0.46237 1 0
2811 1 58.71 8.70773 17.5322 15.7911 0 0.0 1 0
2237 1 58.71 31.5397 17.552 3.58609 2237 0.860137 1 0
160 1 58.71 31.7051 12.3821 1.75708 160 0.376723 1 0
195 1 58.71 29.906 14.075 1.8806 195 0.322105 1 0
403 1 58.71 1.792 0.0792456 8.74643 0 0.0 1 0
53 1 58.71 10.4787 3.53626 -0.00527402 0 0.0 1 0
199 1 58.71 33.4397 14.1401 1.88841 199 -0.795695 1 0
2607 1 58.71 5.28263 17.5862 12.3486 0 0.0 1 0
164 1 58.71 35.0953 15.8431 1.7252 0 0.0 1 0
1061 1 58.71 17.6362 3.50746 17.595 1061 -0.523087 1 0
168 1 58.71 3.49744 15.8578 1.82272 0 0.0 1 0
172 1 58.71 6.83976 15.8628 1.69215 0 0.0 1 0
837 1 58.71 31.7479 0.0801947 14.094 837 -0.347398 1 0
176 1 58.71 10.4651 15.8381 1.72929 0 0.0 1 0
1113 1 58.71 28.1086 6.90521 17.4909 1113 0.329686 1 0
2827 1 58.71 22.7286 17.5391 15.8482 2827 1.04204 1 0
180 1 58.71 14.0688 15.859 1.70068 0 0.0 1 0
184 1 58.71 17.6362 15.8102 1.82299 184 -0.0424104 1 0
182 1 58.71 19.3162 15.7149 0.0209141 182 0.124583 1 0
188 1 58.71 21.134 15.9563 1.64033 188 0.102992 1 0
1134 1 58.71 12.2444 12.2987 17.537 0 0.0 1 0
15 1 58.71 12.405 0.0246879 1.75233 0 0.0 1 0
192 1 58.71 24.6887 15.7886 1.73568 192 -0.354878 1 0
196 1 58.71 28.1911 15.83 1.84868 196 -0.398167 1 0
439 1 58.71 33.289 0.067985 8.78163 439 1.05502 1 0
200 1 58.71 31.6357 15.8952 1.70804 200 0.599226 1 0
895 1 58.71 12.2262 6.98957 15.8502 0 0.0 1 0
991 1 58.71 26.5089 14.1155 15.8325 991 -1.4012 1 0
202 1 58.71 1.71534 1.7785 3.45096 0 0.0 1 0
1045 1 58.71 3.63114 3.61861 17.5359 0 0.0 1 0
204 1 58.71 35.1651 1.78547 5.28277 0 0.0 1 0
952 1 58.71 24.6942 12.3823 15.9194 952 -0.323794 1 0
206 1 58.71 5.2696 1.78094 3.48936 0 0.0 1 0
987 1 58.71 22.8605 14.0145 15.7574 987 -0.0185799 1 0
208 1 58.71 3.53237 1.91901 5.31295 0 0.0 1 0
983 1 58.71 19.3061 14.0777 15.8921 983 -0.0892622 1 0
212 1 58.71 7.0744 1.78939 5.27261 0 0.0 1 0
210 1 58.71 8.71173 1.78816 3.41684 0 0.0 1 0
948 1 58.71 21.1415 12.3079 15.8913 948 -0.258596 1 0
619 1 58.71 15.8602 0.00509146 12.2636 0 0.0 1 0
216 1 58.71 10.5559 1.76243 5.32265 0 0.0 1 0
214 1 58.71 12.2378 1.88931 3.48248 0 0.0 1 0
944 1 58.71 17.5414 12.2921 15.7639 944 0.181355 1 0
801 1 58.71 0.0313298 0.00474491 14.0799 0 0.0 1 0
218 1 58.71 15.9486 1.75412 3.48711 0 0.0 1 0
213 1 58.71 10.5206 0.0312118 3.56951 0 0.0 1 0
220 1 58.71 14.1466 1.82819 5.19965 0 0.0 1 0
979 1 58.71 15.7781 14.0689 15.8177 0 0.0 1 0
224 1 58.71 17.5385 1.75578 5.38239 224 0.833149 1 0
222 1 58.71 19.3097 1.66332 3.62996 222 0.453465 1 0
940 1 58.71 13.9283 12.2502 15.7208 0 0.0 1 0
2035 1 58.71 29.8868 17.5996 1.86279 2035 -0.0347402 1 0
228 1 58.71 21.2037 1.80871 5.31423 228 -0.569652 1 0
226 1 58.71 22.9273 1.72149 3.5418 226 -0.434501 1 0
975 1 58.71 12.1709 14.0934 15.808 0 0.0 1 0
2007 1 58.71 5.14679 17.5237 1.72174 0 0.0 1 0
230 1 58.71 26.4848 1.69601 3.57654 230 -0.549257 1 0
1073 1 58.71 28.0389 3.52632 17.5378 1073 0.470816 1 0
232 1 58.71 24.7341 1.70451 5.26261 232 -0.202475 1 0
1053 1 58.71 10.5594 3.43158 17.51 0 0.0 1 0
236 1 58.71 28.0952 1.75168 5.33966 236 0.432427 1 0
234 1 58.71 29.9306 1.70897 3.44377 234 0.00415236 1 0
971 1 58.71 8.71557 14.0568 15.8273 0 0.0 1 0
109 1 58.71 24.7607 7.00456 0.196717 109 -0.516163 1 0
240 1 58.71 31.5894 1.79186 5.21196 240 0.639229 1 0
238 1 58.71 33.4487 1.77993 3.4889 238 -0.393003 1 0
936 1 58.71 10.5281 12.2301 15.8809 0 0.0 1 0
241 1 58.71 35.1134 3.65222 3.52315 0 0.0 1 0
242 1 58.71 1.63037 5.31705 3.53703 0 0.0 1 0
243 1 58.71 1.74076 3.61804 5.25217 0 0.0 1 0
244 1 58.71 35.1286 5.24834 5.38073 0 0.0 1 0
245 1 58.71 3.56399 3.53137 3.49988 0 0.0 1 0
246 1 58.71 5.3203 5.34666 3.43409 0 0.0 1 0
247 1 58.71 5.32028 3.66859 5.21684 0 0.0 1 0
248 1 58.71 3.51754 5.27215 5.35383 0 0.0 1 0
249 1 58.71 7.01635 3.51807 3.5013 0 0.0 1 0
252 1 58.71 7.11991 5.23172 5.30192 0 0.0 1 0
250 1 58.71 8.69083 5.24441 3.42529 0 0.0 1 0
251 1 58.71 8.77428 3.49616 5.27169 0 0.0 1 0
253 1 58.71 10.4991 3.53253 3.5543 0 0.0 1 0
256 1 58.71 10.4219 5.34018 5.29105 0 0.0 1 0
254 1 58.71 12.314 5.1971 3.49051 0 0.0 1 0
255 1 58.71 12.2297 3.64293 5.26561 0 0.0 1 0
257 1 58.71 14.1242 3.40343 3.46896 0 0.0 1 0
258 1 58.71 15.8803 5.19618 3.56289 0 0.0 1 0
259 1 58.71 15.8579 3.56838 5.21131 0 0.0 1 0
260 1 58.71 14.1319 5.28627 5.22289 0 0.0 1 0
261 1 58.71 17.5845 3.4386 3.49611 261 0.634475 1 0
264 1 58.71 17.5645 5.32616 5.30443 264 0.220457 1 0
262 1 58.71 19.2989 5.26168 3.54076 262 0.290691 1 0
263 1 58.71 19.3359 3.59167 5.27118 263 0.127142 1 0
265 1 58.71 21.0729 3.58259 3.55591 265 0.467226 1 0
268 1 58.71 21.1305 5.31405 5.36983 268 0.127999 1 0
266 1 58.71 22.9343 5.23706 3.55787 266 -0.39232 1 0
267 1 58.71 22.9635 3.56657 5.34566 267 -0.373553 1 0
269 1 58.71 24.658 3.39506 3.57669 269 0.711258 1 0
270 1 58.71 26.5846 5.3397 3.52018 270 -0.504251 1 0
271 1 58.71 26.3213 3.54644 5.34465 271 0.909908 1 0
272 1 58.71 24.6723 5.33091 5.26814 272 0.155796 1 0
273 1 58.71 28.2009 3.31628 3.54419 273 -0.120568 1 0
276 1 58.71 28.1451 5.23561 5.32421 276 -0.047511 1 0
274 1 58.71 29.8506 5.34541 3.53601 274 0.70388 1 0
275 1 58.71 29.8763 3.53846 5.23182 275 0.0991094 1 0
277 1 58.71 31.6156 3.50016 3.48982 277 0.122055 1 0
280 1 58.71 31.6711 5.27955 5.28951 280 -0.316003 1 0
278 1 58.71 33.3424 5.29214 3.46808 278 0.16414 1 0
279 1 58.71 33.3659 3.54907 5.23986 279 0.0463969 1 0
281 1 58.71 35.0994 7.03463 3.61161 0 0.0 1 0
283 1 58.71 1.66529 7.05717 5.29687 0 0.0 1 0
285 1 58.71 3.44918 7.04254 3.64482 0 0.0 1 0
287 1 58.71 5.28648 7.00305 5.36816 0 0.0 1 0
289 1 58.71 7.06245 7.04601 3.63929 0 0.0 1 0
291 1 58.71 8.78904 7.04972 5.3003 0 0.0 1 0
293 1 58.71 10.5875 7.05742 3.46382 0 0.0 1 0
295 1 58.71 12.2583 7.05212 5.26925 0 0.0 1 0
297 1 58.71 13.9958 6.95982 3.44621 0 0.0 1 0
299 1 58.71 15.7858 7.03252 5.22831 0 0.0 1 0
301 1 58.71 17.6034 7.10826 3.47375 301 -0.0229546 1 0
303 1 58.71 19.3845 7.06672 5.27336 303 -0.807463 1 0
305 1 58.71 21.1477 7.0534 3.56624 305 0.0775146 1 0
307 1 58.71 22.9499 7.09583 5.18332 307 -0.122429 1 0
309 1 58.71 24.7005 7.13272 3.42588 309 -0.291835 1 0
311 1 58.71 26.394 7.02514 5.29559 311 0.151015 1 0
313 1 58.71 28.3264 7.10891 3.56155 313 -1.80598 1 0
315 1 58.71 29.9331 7.04944 5.27483 315 0.0631189 1 0
317 1 58.71 31.5823 7.05916 3.57233 317 0.729824 1 0
319 1 58.71 33.4089 7.0573 5.30245 319 -0.579904 1 0
282 1 58.71 1.73225 8.82803 3.59228 0 0.0 1 0
284 1 58.71 0.0219407 8.82099 5.32822 0 0.0 1 0
321 1 58.71 0.0485928 10.5535 3.53637 0 0.0 1 0
323 1 58.71 1.77183 10.5655 5.342 0 0.0 1 0
286 1 58.71 5.20873 8.81273 3.66438 0 0.0 1 0
288 1 58.71 3.52971 8.73662 5.3613 0 0.0 1 0
325 1 58.71 3.48346 10.5158 3.56601 0 0.0 1 0
327 1 58.71 5.38688 10.6387 5.21241 0 0.0 1 0
292 1 58.71 7.09482 8.81761 5.29574 0 0.0 1 0
329 1 58.71 7.10777 10.5793 3.48359 0 0.0 1 0
290 1 58.71 8.77914 8.78518 3.42832 0 0.0 1 0
296 1 58.71 10.4624 8.80198 5.23085 0 0.0 1 0
331 1 58.71 8.78678 10.5589 5.2064 0 0.0 1 0
333 1 58.71 10.6091 10.5285 3.51953 0 0.0 1 0
294 1 58.71 12.2306 8.72446 3.43131 0 0.0 1 0
335 1 58.71 12.4064 10.4333 5.20536 0 0.0 1 0
298 1 58.71 15.7294 8.76189 3.48812 0 0.0 1 0
300 1 58.71 14.0276 8.71479 5.13727 0 0.0 1 0
337 1 58.71 14.1058 10.6842 3.56087 0 0.0 1 0
339 1 58.71 15.7933 10.5485 5.2908 0 0.0 1 0
304 1 58.71 17.5104 8.81531 5.18457 304 0.240616 1 0
341 1 58.71 17.5334 10.6095 3.45782 341 0.396858 1 0
302 1 58.71 19.3443 8.86269 3.39576 302 0.0207066 1 0
308 1 58.71 21.1428 8.76732 5.23587 308 -0.107225 1 0
343 1 58.71 19.3328 10.4899 5.22967 343 0.197387 1 0
345 1 58.71 21.1042 10.5936 3.45304 345 0.0146524 1 0
306 1 58.71 23.0208 8.91417 3.50732 306 -1.19522 1 0
347 1 58.71 22.9545 10.6585 5.31238 347 -1.11604 1 0
310 1 58.71 26.3927 8.82091 3.5619 310 0.197847 1 0
312 1 58.71 24.6731 8.90285 5.3131 312 0.0954802 1 0
349 1 58.71 24.5164 10.7443 3.57928 349 2.04992 1 0
351 1 58.71 26.4085 10.5981 5.34752 351 -0.349488 1 0
316 1 58.71 28.2304 8.83936 5.23358 316 -0.513867 1 0
353 1 58.71 28.1714 10.6214 3.56714 353 0.19879 1 0
314 1 58.71 29.9117 8.8098 3.49225 314 0.87671 1 0
320 1 58.71 31.6261 8.92936 5.31737 320 0.681653 1 0
355 1 58.71 29.911 10.6457 5.3596 355 -0.410754 1 0
357 1 58.71 31.5821 10.7449 3.52124 357 1.22949 1 0
318 1 58.71 33.4319 8.83595 3.56407 318 -0.412187 1 0
359 1 58.71 33.4767 10.6718 5.29707 359 -0.529447 1 0
322 1 58.71 1.71222 12.231 3.5913 0 0.0 1 0
324 1 58.71 35.1319 12.3756 5.28233 0 0.0 1 0
361 1 58.71 35.109 14.1316 3.50142 0 0.0 1 0
363 1 58.71 1.71188 14.0149 5.30024 0 0.0 1 0
326 1 58.71 5.16837 12.4748 3.55464 0 0.0 1 0
328 1 58.71 3.51173 12.3272 5.22825 0 0.0 1 0
365 1 58.71 3.45562 14.1446 3.49459 0 0.0 1 0
367 1 58.71 5.25739 14.2065 5.23262 0 0.0 1 0
332 1 58.71 7.04994 12.371 5.27984 0 0.0 1 0
369 1 58.71 7.07946 14.0417 3.44 0 0.0 1 0
330 1 58.71 8.8504 12.3633 3.5618 0 0.0 1 0
336 1 58.71 10.5344 12.3256 5.22902 0 0.0 1 0
371 1 58.71 8.87698 14.1659 5.32367 0 0.0 1 0
373 1 58.71 10.5322 14.0809 3.56325 0 0.0 1 0
334 1 58.71 12.3531 12.3855 3.54505 0 0.0 1 0
375 1 58.71 12.2188 14.0676 5.30223 0 0.0 1 0
338 1 58.71 15.9222 12.4545 3.56711 0 0.0 1 0
340 1 58.71 13.9805 12.3992 5.38561 0 0.0 1 0
377 1 58.71 14.0416 14.1024 3.62253 0 0.0 1 0
379 1 58.71 15.9096 14.0687 5.37011 0 0.0 1 0
344 1 58.71 17.6855 12.3151 5.31047 344 -0.657611 1 0
381 1 58.71 17.6716 14.113 3.55781 381 0.455389 1 0
342 1 58.71 19.4093 12.3509 3.55576 342 -0.307106 1 0
348 1 58.71 21.159 12.3186 5.31378 348 -0.474689 1 0
383 1 58.71 19.421 14.0665 5.4012 383 -0.529769 1 0
385 1 58.71 21.1453 14.0886 3.62094 385 -0.146647 1 0
346 1 58.71 22.7591 12.2331 3.46405 346 0.782384 1 0
387 1 58.71 22.8557 14.1527 5.24684 387 0.301982 1 0
350 1 58.71 26.4273 12.3395 3.55996 350 -0.187816 1 0
352 1 58.71 24.5803 12.4266 5.29634 352 0.684582 1 0
389 1 58.71 24.6852 14.0872 3.59863 389 -0.183727 1 0
391 1 58.71 26.3812 14.1073 5.3086 391 -0.151033 1 0
356 1 58.71 28.0853 12.3071 5.40428 356 0.21384 1 0
393 1 58.71 28.1517 14.115 3.60465 393 -0.280224 1 0
354 1 58.71 29.9282 12.3701 3.69845 354 -0.691907 1 0
360 1 58.71 31.6627 12.3549 5.33348 360 0.126272 1 0
395 1 58.71 29.8474 14.1749 5.33695 395 0.410685 1 0
397 1 58.71 31.6119 14.2012 3.52649 397 0.00479071 1 0
358 1 58.71 33.4305 12.3974 3.56984 358 -0.438318 1 0
399 1 58.71 33.3586 14.19 5.22254 399 0.301593 1 0
362 1 58.71 1.75042 15.8401 3.58701 0 0.0 1 0
364 1 58.71 35.1013 15.8913 5.2853 0 0.0 1 0
366 1 58.71 5.28539 15.8674 3.49045 0 0.0 1 0
368 1 58.71 3.50804 15.8661 5.37882 0 0.0 1 0
372 1 58.71 7.00921 15.9007 5.29806 0 0.0 1 0
370 1 58.71 8.74448 15.8222 3.50696 0 0.0 1 0
376 1 58.71 10.5382 15.8925 5.34453 0 0.0 1 0
374 1 58.71 12.3041 15.8049 3.5976 0 0.0 1 0
378 1 58.71 15.8507 15.7337 3.60399 0 0.0 1 0
380 1 58.71 14.1698 15.8154 5.36482 0 0.0 1 0
384 1 58.71 17.6614 15.8444 5.29627 384 -0.158046 1 0
382 1 58.71 19.4857 15.9165 3.52901 382 -0.470624 1 0
388 1 58.71 21.1492 15.8774 5.35492 388 0.361393 1 0
386 1 58.71 23.0219 15.8133 3.54893 386 -1.14393 1 0
390 1 58.71 26.2991 15.8783 3.46165 390 1.11912 1 0
392 1 58.71 24.6188 15.9174 5.30572 392 0.268773 1 0
396 1 58.71 28.1011 15.7936 5.27391 396 -0.650953 1 0
394 1 58.71 29.8034 15.9102 3.62418 394 0.451151 1 0
400 1 58.71 31.6302 15.8463 5.23205 400 0.0631149 1 0
398 1 58.71 33.3625 15.9028 3.48835 398 0.375124 1 0
932 1 58.71 7.01737 12.2578 15.7789 0 0.0 1 0
402 1 58.71 1.78653 1.86567 7.01908 0 0.0 1 0
2621 1 58.71 17.5421 17.5976 10.5961 2621 0.428863 1 0
406 1 58.71 5.26832 1.74691 7.19704 0 0.0 1 0
411 1 58.71 8.84186 0.0599981 8.82505 0 0.0 1 0
410 1 58.71 8.77534 1.73427 7.08585 0 0.0 1 0
967 1 58.71 5.20562 14.0773 15.8235 0 0.0 1 0
414 1 58.71 12.4694 1.80305 6.98489 0 0.0 1 0
928 1 58.71 3.46326 12.3781 15.8184 0 0.0 1 0
418 1 58.71 15.736 1.77867 6.97236 0 0.0 1 0
963 1 58.71 1.70255 14.1329 15.8794 0 0.0 1 0
422 1 58.71 19.4326 1.83799 6.99898 422 -0.758632 1 0
924 1 58.71 0.0639351 12.3963 15.7149 0 0.0 1 0
426 1 58.71 22.9805 1.78152 6.9903 426 -0.587349 1 0
409 1 58.71 7.09819 0.0275006 6.97696 0 0.0 1 0
430 1 58.71 26.3043 1.74923 7.05506 430 1.29694 1 0
959 1 58.71 33.5185 10.6248 15.8227 959 -0.483162 1 0
434 1 58.71 29.8639 1.6331 7.02843 434 -0.159212 1 0
121 1 58.71 0.154977 10.5558 0.0288198 0 0.0 1 0
438 1 58.71 33.4235 1.7818 7.0702 438 -0.363 1 0
441 1 58.71 35.1438 3.57466 7.09609 0 0.0 1 0
442 1 58.71 1.78564 5.33433 7.03646 0 0.0 1 0
445 1 58.71 3.66867 3.4876 7.01622 0 0.0 1 0
446 1 58.71 5.39524 5.29457 7.14802 0 0.0 1 0
449 1 58.71 7.07481 3.48638 7.11651 0 0.0 1 0
450 1 58.71 8.83164 5.28144 7.06366 0 0.0 1 0
453 1 58.71 10.5282 3.55935 7.05082 0 0.0 1 0
454 1 58.71 12.3216 5.32226 7.1068 0 0.0 1 0
457 1 58.71 14.0528 3.56148 7.01844 0 0.0 1 0
458 1 58.71 15.7066 5.33992 6.99189 0 0.0 1 0
461 1 58.71 17.5892 3.63688 6.99385 461 -0.676529 1 0
462 1 58.71 19.3214 5.28953 7.0529 462 -0.0153917 1 0
465 1 58.71 21.2209 3.47803 7.0525 465 -0.456704 1 0
466 1 58.71 22.9394 5.37581 7.00998 466 -0.826374 1 0
469 1 58.71 24.6405 3.49176 7.03788 469 0.125218 1 0
470 1 58.71 26.318 5.34252 7.11565 470 0.668451 1 0
473 1 58.71 28.0757 3.51123 7.13439 473 0.315559 1 0
474 1 58.71 29.8508 5.28588 7.08835 474 0.244463 1 0
477 1 58.71 31.5769 3.50426 7.07505 477 0.311928 1 0
478 1 58.71 33.3867 5.27006 7.13462 478 0.309805 1 0
481 1 58.71 35.1159 7.1015 7.0111 0 0.0 1 0
485 1 58.71 3.53353 7.00388 7.01401 0 0.0 1 0
489 1 58.71 7.08515 7.05232 7.11099 0 0.0 1 0
493 1 58.71 10.6407 7.10183 7.06008 0 0.0 1 0
497 1 58.71 13.9954 7.00484 7.10162 0 0.0 1 0
501 1 58.71 17.5078 7.0252 7.03876 501 0.107788 1 0
505 1 58.71 21.0147 7.04511 7.04643 505 1.33356 1 0
509 1 58.71 24.5765 7.03547 7.05228 509 0.65121 1 0
513 1 58.71 28.0964 6.99407 7.04512 513 0.636022 1 0
517 1 58.71 31.6904 6.8676 7.09892 517 -0.385144 1 0
482 1 58.71 1.72309 8.82353 7.06841 0 0.0 1 0
521 1 58.71 35.1051 10.587 7.19498 0 0.0 1 0
486 1 58.71 5.27587 8.74128 7.01298 0 0.0 1 0
525 1 58.71 3.48692 10.64 7.10897 0 0.0 1 0
529 1 58.71 7.14494 10.5777 7.07126 0 0.0 1 0
490 1 58.71 8.85738 8.84016 7.03411 0 0.0 1 0
533 1 58.71 10.5261 10.5327 6.977 0 0.0 1 0
494 1 58.71 12.3931 8.79966 6.94951 0 0.0 1 0
498 1 58.71 15.6724 8.80228 7.06011 0 0.0 1 0
537 1 58.71 14.0588 10.6903 7.05733 0 0.0 1 0
541 1 58.71 17.5569 10.5894 7.07163 541 -0.335929 1 0
502 1 58.71 19.2563 8.79179 7.00106 502 0.326259 1 0
545 1 58.71 21.1301 10.5421 7.01824 545 -0.445177 1 0
506 1 58.71 22.8594 8.86245 6.94426 506 0.020022 1 0
510 1 58.71 26.3973 8.76588 7.07094 510 -0.0043948 1 0
549 1 58.71 24.6415 10.606 7.07202 549 0.162635 1 0
553 1 58.71 28.0909 10.5098 7.13142 553 0.436327 1 0
514 1 58.71 30.0337 8.73556 7.02289 514 -1.00494 1 0
557 1 58.71 31.6162 10.6261 7.11652 557 0.426458 1 0
518 1 58.71 33.3812 8.84248 7.02908 518 -0.642892 1 0
522 1 58.71 1.63629 12.309 7.02636 0 0.0 1 0
561 1 58.71 -0.00272123 14.1852 7.00128 0 0.0 1 0
526 1 58.71 5.2915 12.3536 6.95119 0 0.0 1 0
565 1 58.71 3.38315 13.9523 7.03623 0 0.0 1 0
569 1 58.71 7.01957 14.0701 7.10977 0 0.0 1 0
530 1 58.71 8.80372 12.3331 7.07124 0 0.0 1 0
573 1 58.71 10.4844 14.0908 7.09243 0 0.0 1 0
534 1 58.71 12.1402 12.4285 6.93661 0 0.0 1 0
538 1 58.71 15.7674 12.3433 6.98275 0 0.0 1 0
577 1 58.71 14.0014 14.1004 7.03019 0 0.0 1 0
581 1 58.71 17.5789 14.099 7.06366 581 -0.140241 1 0
542 1 58.71 19.2343 12.3278 7.1159 542 1.27215 1 0
585 1 58.71 21.0674 14.1219 7.06748 585 0.949902 1 0
546 1 58.71 22.9264 12.3483 7.0495 546 -0.589331 1 0
550 1 58.71 26.3512 12.3566 7.19063 550 -0.251651 1 0
589 1 58.71 24.591 14.1365 7.12539 589 0.44266 1 0
593 1 58.71 28.1173 14.1913 7.12106 593 0.0181076 1 0
554 1 58.71 29.9007 12.448 7.0095 554 -0.237093 1 0
597 1 58.71 31.6272 14.1347 7.05903 597 -0.217541 1 0
558 1 58.71 33.2574 12.4516 7.07673 558 1.60162 1 0
562 1 58.71 1.71534 15.9408 7.13407 0 0.0 1 0
566 1 58.71 5.18275 15.8013 7.06835 0 0.0 1 0
570 1 58.71 8.78101 15.848 7.071 0 0.0 1 0
574 1 58.71 12.2471 15.8844 7.08773 0 0.0 1 0
578 1 58.71 15.7678 15.9049 7.12735 0 0.0 1 0
582 1 58.71 19.4169 15.7896 7.12001 582 -0.324641 1 0
586 1 58.71 22.8739 15.8385 7.23056 586 0.152178 1 0
590 1 58.71 26.3435 15.8844 7.0958 590 0.248965 1 0
594 1 58.71 29.8867 15.9564 7.0165 594 0.203224 1 0
598 1 58.71 33.3519 15.8266 7.07925 598 0.391174 1 0
955 1 58.71 29.7898 10.4683 15.9334 955 1.36611 1 0
404 1 58.71 0.0199519 1.86742 8.75556 0 0.0 1 0
920 1 58.71 31.6898 8.84991 15.8538 920 -0.455563 1 0
602 1 58.71 1.82997 1.81988 10.6909 0 0.0 1 0
839 1 58.71 33.5277 0.0373837 15.8522 839 -0.456554 1 0
408 1 58.71 3.57382 1.61907 8.93089 0 0.0 1 0
916 1 58.71 28.1123 8.84842 15.7691 916 -0.364648 1 0
606 1 58.71 5.27774 1.74208 10.5551 0 0.0 1 0
412 1 58.71 7.00427 1.75459 8.91001 0 0.0 1 0
951 1 58.71 26.3544 10.5788 15.8242 951 0.220943 1 0
2021 1 58.71 17.5325 17.574 0.0373107 2021 0.410193 1 0
416 1 58.71 10.6056 1.82508 8.73533 0 0.0 1 0
610 1 58.71 8.79535 1.67236 10.5682 0 0.0 1 0
2019 1 58.71 15.9499 17.5592 1.80381 0 0.0 1 0
912 1 58.71 24.6929 8.82426 15.7768 912 -0.7969 1 0
614 1 58.71 12.3401 1.72636 10.5998 0 0.0 1 0
1158 1 58.71 33.4045 12.3734 17.5645 1158 0.500136 1 0
420 1 58.71 14.1519 1.75196 8.89084 0 0.0 1 0
947 1 58.71 22.9632 10.6543 15.838 947 -0.280656 1 0
618 1 58.71 15.7925 1.75302 10.5286 0 0.0 1 0
424 1 58.71 17.478 1.84449 8.72666 424 0.401935 1 0
82 1 58.71 1.82081 8.78469 0.00767824 0 0.0 1 0
943 1 58.71 19.3665 10.4979 15.9699 943 0.168954 1 0
428 1 58.71 21.1311 1.73227 8.78369 428 0.679599 1 0
622 1 58.71 19.2735 1.65353 10.3978 622 0.26181 1 0
2031 1 58.71 26.3644 17.558 1.79089 2031 0.734222 1 0
603 1 58.71 1.67209 0.0730071 12.3408 0 0.0 1 0
626 1 58.71 22.8579 1.75908 10.57 626 0.5852 1 0
1006 1 58.71 5.26054 1.78559 17.5595 0 0.0 1 0
432 1 58.71 24.6879 1.71614 8.72644 432 -1.1014 1 0
2003 1 58.71 1.7733 17.5066 1.79703 0 0.0 1 0
630 1 58.71 26.4237 1.70994 10.5305 630 -0.651115 1 0
436 1 58.71 28.167 1.721 8.80385 436 -0.999605 1 0
908 1 58.71 21.2707 8.81563 15.8704 908 -1.12252 1 0
904 1 58.71 17.5157 8.83272 15.8235 904 0.514776 1 0
440 1 58.71 31.5527 1.67933 8.74498 440 0.0714164 1 0
634 1 58.71 29.7729 1.76942 10.6042 634 1.31794 1 0
194 1 58.71 29.9436 15.7641 0.124357 194 -0.678225 1 0
939 1 58.71 15.7661 10.6032 15.8202 0 0.0 1 0
638 1 58.71 33.3814 1.74723 10.4851 638 0.152339 1 0
443 1 58.71 1.69595 3.49789 8.82582 0 0.0 1 0
444 1 58.71 35.1881 5.33679 8.80963 0 0.0 1 0
641 1 58.71 0.0381621 3.50703 10.5825 0 0.0 1 0
642 1 58.71 1.71586 5.25825 10.5988 0 0.0 1 0
447 1 58.71 5.18719 3.53982 8.91007 0 0.0 1 0
448 1 58.71 3.49994 5.32408 8.87046 0 0.0 1 0
645 1 58.71 3.55312 3.5331 10.5281 0 0.0 1 0
646 1 58.71 5.31732 5.35862 10.5944 0 0.0 1 0
452 1 58.71 7.07492 5.3094 8.93395 0 0.0 1 0
649 1 58.71 7.00651 3.47801 10.6413 0 0.0 1 0
451 1 58.71 8.7625 3.45882 8.88645 0 0.0 1 0
456 1 58.71 10.5024 5.29014 8.84713 0 0.0 1 0
650 1 58.71 8.90149 5.28755 10.53 0 0.0 1 0
653 1 58.71 10.5887 3.38766 10.6047 0 0.0 1 0
455 1 58.71 12.4285 3.50391 8.77528 0 0.0 1 0
654 1 58.71 12.0783 5.30019 10.5087 0 0.0 1 0
459 1 58.71 15.7248 3.56119 8.84084 0 0.0 1 0
460 1 58.71 14.046 5.3152 8.83309 0 0.0 1 0
657 1 58.71 14.0685 3.56772 10.5665 0 0.0 1 0
658 1 58.71 15.7854 5.33721 10.6472 0 0.0 1 0
464 1 58.71 17.4995 5.30575 8.80278 464 0.4763 1 0
661 1 58.71 17.6185 3.51137 10.5891 661 -0.411036 1 0
463 1 58.71 19.3787 3.48053 8.72836 463 -0.493072 1 0
468 1 58.71 21.0555 5.25136 8.72427 468 0.353152 1 0
662 1 58.71 19.2544 5.31293 10.54 662 0.408084 1 0
665 1 58.71 21.1074 3.43038 10.5239 665 -0.639097 1 0
467 1 58.71 22.9728 3.56158 8.70124 467 -0.74028 1 0
666 1 58.71 22.7514 5.20979 10.5274 666 0.673192 1 0
471 1 58.71 26.3068 3.49286 8.74282 471 0.579388 1 0
472 1 58.71 24.6262 5.32935 8.7525 472 0.00680755 1 0
669 1 58.71 24.658 3.54049 10.4927 669 -0.54793 1 0
670 1 58.71 26.3706 5.29795 10.5838 670 0.0692602 1 0
476 1 58.71 28.1307 5.27733 8.87851 476 -0.135177 1 0
673 1 58.71 28.0417 3.50731 10.4956 673 0.52064 1 0
475 1 58.71 29.8474 3.42881 8.7818 475 0.376723 1 0
480 1 58.71 31.6961 5.24345 8.92044 480 -0.790777 1 0
674 1 58.71 29.9075 5.21093 10.5599 674 -0.293479 1 0
677 1 58.71 31.6038 3.44517 10.6091 677 0.189027 1 0
479 1 58.71 33.3915 3.52523 8.79705 479 -0.0526099 1 0
678 1 58.71 33.4337 5.1939 10.5849 678 -0.027844 1 0
483 1 58.71 1.80799 7.01545 8.79283 0 0.0 1 0
681 1 58.71 35.1888 7.04734 10.4953 0 0.0 1 0
487 1 58.71 5.21323 7.08496 8.84664 0 0.0 1 0
685 1 58.71 3.55881 6.98811 10.6271 0 0.0 1 0
689 1 58.71 7.08395 7.08354 10.5274 0 0.0 1 0
491 1 58.71 8.84716 7.03091 8.71346 0 0.0 1 0
693 1 58.71 10.6174 7.17316 10.5976 0 0.0 1 0
495 1 58.71 12.3355 7.03117 8.89979 0 0.0 1 0
499 1 58.71 15.8323 7.00316 8.80075 0 0.0 1 0
697 1 58.71 14.0573 7.03026 10.5899 0 0.0 1 0
701 1 58.71 17.553 7.08639 10.5585 701 0.498001 1 0
503 1 58.71 19.3173 7.12651 8.67717 503 -0.500947 1 0
705 1 58.71 21.0274 6.96194 10.4995 705 0.193869 1 0
507 1 58.71 22.853 7.02545 8.82393 507 -0.265425 1 0
511 1 58.71 26.3758 7.14409 8.91641 511 0.0683507 1 0
709 1 58.71 24.6136 7.00343 10.5776 709 -0.743399 1 0
713 1 58.71 28.1851 7.07299 10.5587 713 -0.402716 1 0
515 1 58.71 29.9616 7.07123 8.92031 515 0.104412 1 0
717 1 58.71 31.6472 6.99074 10.734 717 -0.0164576 1 0