ITEM: TIMESTEP
400
ITEM: NUMBER OF ATOMS
4000
ITEM: BOX BOUNDS pp pp pp
0.0 35.2
0.0 35.2
0.0 35.2
ITEM: ATOMS id type mass x y z c_1[1] c_1[2] structure_types fault_types 
1000 1 58.71 31.6023 15.8265 15.829 1000 0.351573 1 0
54 1 58.71 12.2837 5.17338 0.0254391 0 0.0 1 0
996 1 58.71 28.1526 15.8915 15.8279 996 0.0520722 1 0
4 1 58.71 35.2188 1.8051 1.76966 0 0.0 1 0
992 1 58.71 24.6635 15.838 15.7839 992 -0.270921 1 0
209 1 58.71 7.05747 0.0158477 3.4631 0 0.0 1 0
988 1 58.71 21.1356 15.9 15.8035 988 0.200758 1 0
8 1 58.71 3.43459 1.69718 1.77357 0 0.0 1 0
984 1 58.71 17.608 15.9023 15.7472 984 0.550557 1 0
12 1 58.71 7.07526 1.82096 1.72201 0 0.0 1 0
2633 1 58.71 28.227 17.507 10.5313 2633 0.139649 1 0
980 1 58.71 14.1011 15.7736 15.8544 0 0.0 1 0
976 1 58.71 10.6137 15.9256 15.7938 0 0.0 1 0
16 1 58.71 10.5079 1.80338 1.73335 0 0.0 1 0
10 1 58.71 8.78022 1.75629 -0.02066 0 0.0 1 0
972 1 58.71 7.0369 15.9061 15.8769 0 0.0 1 0
6 1 58.71 5.24735 1.75698 0.0485604 0 0.0 1 0
2 1 58.71 1.74084 1.69888 0.00104613 0 0.0 1 0
968 1 58.71 3.47782 15.9071 15.832 0 0.0 1 0
20 1 58.71 14.0885 1.77179 1.76397 0 0.0 1 0
964 1 58.71 35.1088 15.9207 15.8986 0 0.0 1 0
24 1 58.71 17.636 1.61232 1.79546 24 -0.737271 1 0
2435 1 58.71 30.0162 17.516 8.80012 2435 -0.115872 1 0
999 1 58.71 33.4344 14.1086 15.8488 999 -0.0404968 1 0
995 1 58.71 29.9018 14.1204 15.8382 995 0.54194 1 0
28 1 58.71 21.0912 1.7811 1.7333 28 -0.165863 1 0
15 1 58.71 12.2209 0.0566832 1.75407 0 0.0 1 0
2607 1 58.71 5.33756 17.5232 12.287 0 0.0 1 0
423 1 58.71 19.4149 0.104772 8.83018 423 -1.04028 1 0
1182 1 58.71 19.3978 15.898 17.5768 1182 -0.341184 1 0
960 1 58.71 31.7474 12.309 15.8037 960 -0.361029 1 0
32 1 58.71 24.5414 1.75186 1.85109 32 0.435037 1 0
956 1 58.71 28.2463 12.4053 15.8435 956 -1.17062 1 0
36 1 58.71 28.1482 1.76318 1.74781 36 0.260382 1 0
31 1 58.71 26.358 0.13582 1.70815 31 -0.0458857 1 0
2831 1 58.71 26.37 17.5388 15.8448 2831 0.297812 1 0
29 1 58.71 24.5457 -0.00609715 0.0552059 29 0.595004 1 0
40 1 58.71 31.6784 1.75381 1.68615 40 -0.258175 1 0
85 1 58.71 3.59774 7.0912 0.0261118 0 0.0 1 0
2621 1 58.71 17.5804 17.5574 10.5061 2621 0.312739 1 0
1005 1 58.71 3.51814 -0.0128449 17.5916 0 0.0 1 0
65 1 58.71 21.1024 3.59096 -0.0442778 65 0.0247618 1 0
43 1 58.71 1.75888 3.58421 1.75204 0 0.0 1 0
44 1 58.71 35.1561 5.32431 1.72898 0 0.0 1 0
2431 1 58.71 26.4926 17.4353 8.81998 2431 -0.4202 1 0
1189 1 58.71 24.6345 14.1145 17.5805 1189 0.283627 1 0
47 1 58.71 5.27935 3.5005 1.728 0 0.0 1 0
48 1 58.71 3.57014 5.2638 1.72396 0 0.0 1 0
2213 1 58.71 10.6092 17.544 3.50254 0 0.0 1 0
52 1 58.71 7.09614 5.30097 1.77564 0 0.0 1 0
2817 1 58.71 14.1368 17.5933 14.0443 0 0.0 1 0
51 1 58.71 8.7832 3.52869 1.7734 0 0.0 1 0
1017 1 58.71 14.1238 0.150309 17.6099 0 0.0 1 0
56 1 58.71 10.5392 5.205 1.772 0 0.0 1 0
217 1 58.71 14.0908 -0.0137356 3.57259 0 0.0 1 0
55 1 58.71 12.2958 3.41087 1.88513 0 0.0 1 0
110 1 58.71 26.3456 8.81972 0.0491146 110 0.721266 1 0
1193 1 58.71 28.1674 14.1095 17.5567 1193 -0.615387 1 0
59 1 58.71 15.8336 3.51494 1.77057 0 0.0 1 0
60 1 58.71 14.0954 5.21112 1.86734 0 0.0 1 0
39 1 58.71 33.4099 -0.0658881 1.70357 39 0.309539 1 0
64 1 58.71 17.7076 5.20259 1.76254 64 -0.809261 1 0
74 1 58.71 29.9166 5.28846 0.042004 74 -0.352937 1 0
63 1 58.71 19.2971 3.37274 1.63706 63 0.459896 1 0
2635 1 58.71 29.9675 17.5883 12.3217 2635 -0.0981662 1 0
68 1 58.71 21.0282 5.23728 1.78335 68 0.602964 1 0
2819 1 58.71 15.9262 17.5549 15.813 0 0.0 1 0
67 1 58.71 22.8919 3.44268 1.80789 67 -0.395343 1 0
2805 1 58.71 3.60938 17.587 13.9724 0 0.0 1 0
2413 1 58.71 10.5392 17.5885 7.06554 0 0.0 1 0
71 1 58.71 26.4169 3.4494 1.79836 71 -0.712236 1 0
72 1 58.71 24.7063 5.30006 1.77421 72 -0.569951 1 0
2623 1 58.71 19.486 17.5265 12.2107 2623 -1.08856 1 0
76 1 58.71 28.0592 5.22196 1.69196 76 0.224141 1 0
2439 1 58.71 33.5313 17.5091 8.79369 2439 -0.18715 1 0
75 1 58.71 29.7889 3.5389 1.76961 75 0.635213 1 0
2415 1 58.71 12.2948 17.5108 8.80905 0 0.0 1 0
80 1 58.71 31.6381 5.14401 1.78731 80 0.457634 1 0
129 1 58.71 7.15822 10.5198 0.0222908 0 0.0 1 0
79 1 58.71 33.4211 3.56413 1.77075 79 0.248224 1 0
1177 1 58.71 14.0757 14.0393 17.5994 0 0.0 1 0
83 1 58.71 1.77714 7.03508 1.63935 0 0.0 1 0
407 1 58.71 5.20236 0.0459005 8.87313 0 0.0 1 0
87 1 58.71 5.27742 7.01189 1.75856 0 0.0 1 0
1065 1 58.71 21.2243 3.48225 17.4977 1065 -1.17208 1 0
91 1 58.71 8.86187 7.1063 1.70316 0 0.0 1 0
2437 1 58.71 31.7959 17.5492 7.03619 2437 -0.802376 1 0
95 1 58.71 12.3021 6.95574 1.74429 0 0.0 1 0
207 1 58.71 5.28188 0.0480503 5.31391 0 0.0 1 0
99 1 58.71 15.838 6.95322 1.8154 0 0.0 1 0
211 1 58.71 8.71442 0.079624 5.23285 0 0.0 1 0
103 1 58.71 19.3024 7.05467 1.83839 103 0.13852 1 0
633 1 58.71 28.1818 0.0272421 10.5475 633 0.557648 1 0
107 1 58.71 22.8146 7.00422 1.74731 107 0.308901 1 0
2235 1 58.71 29.971 17.5088 5.25145 2235 -0.0349654 1 0
111 1 58.71 26.387 7.05858 1.60807 111 -0.231797 1 0
429 1 58.71 24.5295 0.0135513 7.10094 429 0.60806 1 0
115 1 58.71 29.9204 6.93133 1.77093 115 -0.265125 1 0
86 1 58.71 5.24366 8.86424 0.0960632 0 0.0 1 0
119 1 58.71 33.4825 7.08013 1.71654 119 -0.13119 1 0
419 1 58.71 15.8609 0.0409347 8.7627 0 0.0 1 0
84 1 58.71 35.2443 8.74195 1.64567 0 0.0 1 0
114 1 58.71 30.0237 8.75524 0.101623 114 -0.930352 1 0
123 1 58.71 1.75206 10.6246 1.67235 0 0.0 1 0
821 1 58.71 17.5814 0.028243 14.1116 821 0.387213 1 0
88 1 58.71 3.44728 8.74692 1.80395 0 0.0 1 0
141 1 58.71 17.5388 10.4993 0.0157292 141 0.240813 1 0
127 1 58.71 5.3337 10.6103 1.75909 0 0.0 1 0
92 1 58.71 6.99659 8.78535 1.74531 0 0.0 1 0
117 1 58.71 31.671 7.01209 0.0984923 117 0.00292685 1 0
2825 1 58.71 21.1762 17.5955 14.0841 2825 0.140705 1 0
96 1 58.71 10.6391 8.85709 1.744 0 0.0 1 0
131 1 58.71 8.86847 10.4736 1.67853 0 0.0 1 0
2611 1 58.71 8.83606 17.5725 12.3071 0 0.0 1 0
1033 1 58.71 28.2419 0.115377 17.5973 1033 -0.596335 1 0
135 1 58.71 12.4273 10.5383 1.77142 0 0.0 1 0
2411 1 58.71 8.82485 17.487 8.74759 0 0.0 1 0
100 1 58.71 14.1313 8.69224 1.73596 0 0.0 1 0
2239 1 58.71 33.5121 17.5947 5.29489 2239 0.0171357 1 0
139 1 58.71 15.8131 10.5643 1.79905 0 0.0 1 0
104 1 58.71 17.5379 8.83782 1.8227 104 0.225369 1 0
637 1 58.71 31.7704 0.0132116 10.568 637 -0.132414 1 0
57 1 58.71 14.014 3.57512 -0.00358511 0 0.0 1 0
108 1 58.71 21.0405 8.83147 1.67171 108 0.625914 1 0
143 1 58.71 19.3749 10.5064 1.71359 143 -0.537882 1 0
2401 1 58.71 0.0818693 17.5158 7.02081 0 0.0 1 0
14 1 58.71 12.2796 1.76791 0.0284288 0 0.0 1 0
147 1 58.71 22.8757 10.5761 1.71568 147 -0.220589 1 0
190 1 58.71 26.4622 15.969 0.0117612 190 -0.795919 1 0
112 1 58.71 24.593 8.74597 1.8092 112 -0.0633527 1 0
433 1 58.71 28.096 0.103664 7.10069 433 0.612726 1 0
151 1 58.71 26.3529 10.5692 1.64529 151 0.544231 1 0
116 1 58.71 28.166 8.78036 1.72815 116 0.197682 1 0
118 1 58.71 33.3858 8.71171 -0.0200263 118 0.270741 1 0
2637 1 58.71 31.7344 17.5286 10.5042 2637 -0.00713576 1 0
120 1 58.71 31.7083 8.84535 1.84967 120 0.114933 1 0
155 1 58.71 29.9284 10.5067 1.72899 155 -0.468541 1 0
1161 1 58.71 35.0881 14.083 17.6146 0 0.0 1 0
2021 1 58.71 17.5822 17.5718 0.0487231 2021 0.314734 1 0
159 1 58.71 33.4777 10.5151 1.77902 159 0.121526 1 0
609 1 58.71 7.02284 0.0604357 10.5902 0 0.0 1 0
124 1 58.71 35.1253 12.3472 1.63458 0 0.0 1 0
1178 1 58.71 15.8695 15.8095 17.5908 0 0.0 1 0
163 1 58.71 1.74756 14.111 1.64884 0 0.0 1 0
1138 1 58.71 15.8426 12.3718 17.5541 0 0.0 1 0
128 1 58.71 3.53389 12.329 1.74351 0 0.0 1 0
69 1 58.71 24.6828 3.48565 -0.0258324 69 -0.554944 1 0
167 1 58.71 5.28792 14.1056 1.66678 0 0.0 1 0
132 1 58.71 7.05334 12.3296 1.64224 0 0.0 1 0
2003 1 58.71 1.7545 17.5661 1.68122 0 0.0 1 0
1157 1 58.71 31.6662 10.5631 17.5288 1157 0.290984 1 0
136 1 58.71 10.6233 12.208 1.7099 0 0.0 1 0
171 1 58.71 8.99109 14.068 1.71503 0 0.0 1 0
1173 1 58.71 10.6454 14.0357 17.6041 0 0.0 1 0
1165 1 58.71 3.4392 14.1211 17.5569 0 0.0 1 0
175 1 58.71 12.3556 14.0269 1.78648 0 0.0 1 0
437 1 58.71 31.6433 0.00598329 7.0536 437 0.64442 1 0
140 1 58.71 14.0811 12.3515 1.72399 0 0.0 1 0
2801 1 58.71 0.023762 17.6019 14.131 0 0.0 1 0
179 1 58.71 15.8121 13.9929 1.76996 0 0.0 1 0
144 1 58.71 17.6763 12.3729 1.70688 144 -0.48872 1 0
231 1 58.71 26.3736 0.0644605 5.34102 231 0.330948 1 0
2237 1 58.71 31.7619 17.5855 3.52462 2237 -0.643143 1 0
148 1 58.71 21.0778 12.3114 1.65829 148 0.857261 1 0
183 1 58.71 19.3499 14.0787 1.81339 183 0.494113 1 0
2203 1 58.71 1.77191 17.5542 5.15784 0 0.0 1 0
607 1 58.71 5.22438 0.0648997 12.3463 0 0.0 1 0
187 1 58.71 22.8507 14.1183 1.68666 187 -0.00438006 1 0
403 1 58.71 1.81571 0.0537335 8.719 0 0.0 1 0
152 1 58.71 24.5933 12.3293 1.70793 152 0.142764 1 0
2201 1 58.71 0.0768733 17.6219 3.47138 0 0.0 1 0
191 1 58.71 26.4697 14.1481 1.69293 191 -0.913277 1 0
156 1 58.71 28.2037 12.3102 1.68836 156 -0.527241 1 0
1069 1 58.71 24.5431 3.48407 17.5694 1069 1.45125 1 0
2433 1 58.71 28.1385 17.5576 7.04636 2433 0.656725 1 0
160 1 58.71 31.6516 12.2413 1.69666 160 0.222548 1 0
195 1 58.71 29.883 14.0174 1.78924 195 0.317614 1 0
1197 1 58.71 31.7873 14.1255 17.6121 1197 -0.921327 1 0
807 1 58.71 5.27049 0.0856875 15.7302 0 0.0 1 0
199 1 58.71 33.4165 14.1203 1.66725 199 -0.298521 1 0
213 1 58.71 10.6423 0.0129237 3.5272 0 0.0 1 0
164 1 58.71 35.1715 15.8764 1.67716 0 0.0 1 0
2229 1 58.71 24.7363 17.6298 3.47107 2229 -0.780516 1 0
168 1 58.71 3.55542 15.8847 1.67255 0 0.0 1 0
172 1 58.71 7.10879 15.82 1.69271 0 0.0 1 0
631 1 58.71 26.5385 0.0216801 12.297 631 -0.592536 1 0
176 1 58.71 10.6233 15.8157 1.8044 0 0.0 1 0
138 1 58.71 15.8883 12.3025 0.0724797 0 0.0 1 0
2613 1 58.71 10.5304 17.5009 10.5731 0 0.0 1 0
180 1 58.71 14.0519 15.8165 1.7421 0 0.0 1 0
184 1 58.71 17.5794 15.7844 1.78534 184 -0.0801952 1 0
1166 1 58.71 5.23954 15.8183 17.5731 0 0.0 1 0
188 1 58.71 21.0991 15.8807 1.75481 188 -0.145717 1 0
1070 1 58.71 26.3902 5.35639 17.5291 1070 -0.196707 1 0
46 1 58.71 5.30116 5.29599 -0.0409443 0 0.0 1 0
192 1 58.71 24.5942 15.9092 1.71801 192 0.565707 1 0
196 1 58.71 28.2044 15.8469 1.80303 196 0.295676 1 0
186 1 58.71 22.8437 15.9035 0.0128973 186 0.16865 1 0
200 1 58.71 31.6171 15.8554 1.70873 200 0.135193 1 0
895 1 58.71 12.4221 7.07379 15.892 0 0.0 1 0
991 1 58.71 26.3335 14.0416 15.7058 991 0.352007 1 0
202 1 58.71 1.73073 1.80974 3.46434 0 0.0 1 0
97 1 58.71 14.069 7.00887 -0.0240514 0 0.0 1 0
204 1 58.71 0.0214099 1.73732 5.31105 0 0.0 1 0
952 1 58.71 24.6271 12.2946 15.844 952 0.192342 1 0
206 1 58.71 5.23817 1.66924 3.48328 0 0.0 1 0
987 1 58.71 22.9273 14.1025 15.8694 987 -0.284708 1 0
208 1 58.71 3.53198 1.72983 5.24363 0 0.0 1 0
983 1 58.71 19.3826 14.1066 15.8774 983 -0.0626832 1 0
212 1 58.71 6.94124 1.78956 5.28959 0 0.0 1 0
210 1 58.71 8.77057 1.77044 3.44236 0 0.0 1 0
948 1 58.71 21.1839 12.3748 15.8014 948 -0.374955 1 0
1010 1 58.71 8.77976 1.73425 17.5956 0 0.0 1 0
216 1 58.71 10.4511 1.81763 5.21094 0 0.0 1 0
214 1 58.71 12.3836 1.67869 3.50271 0 0.0 1 0
944 1 58.71 17.5414 12.2859 15.817 944 0.774638 1 0
2209 1 58.71 7.05673 17.5149 3.47774 0 0.0 1 0
218 1 58.71 15.8659 1.72052 3.5271 0 0.0 1 0
154 1 58.71 29.9015 12.3004 -0.0121867 154 0.332361 1 0
220 1 58.71 14.0982 1.78596 5.22835 0 0.0 1 0
979 1 58.71 15.8362 14.0992 15.8228 0 0.0 1 0
224 1 58.71 17.639 1.71304 5.22212 224 -0.0513649 1 0
222 1 58.71 19.3482 1.71473 3.61433 222 0.0211763 1 0
940 1 58.71 14.042 12.2402 15.8362 0 0.0 1 0
625 1 58.71 21.0939 0.0429849 10.5173 625 -0.0274621 1 0
228 1 58.71 21.1007 1.73651 5.39227 228 -0.0625009 1 0
226 1 58.71 22.7859 1.72102 3.56178 226 0.439509 1 0
975 1 58.71 12.3137 14.1255 15.8451 0 0.0 1 0
635 1 58.71 30.0584 0.0403454 12.3104 635 -0.572194 1 0
230 1 58.71 26.3325 1.72705 3.51288 230 0.483692 1 0
239 1 58.71 33.4136 0.0507322 5.1652 239 0.0331099 1 0
232 1 58.71 24.6468 1.74472 5.35559 232 -0.0542727 1 0
3021 1 58.71 17.571 17.6454 17.5927 3021 0.39553 1 0
236 1 58.71 28.1216 1.84965 5.36269 236 -0.128951 1 0
234 1 58.71 29.8646 1.75238 3.54575 234 -0.181263 1 0
971 1 58.71 8.93661 14.1197 15.7647 0 0.0 1 0
2423 1 58.71 19.2112 17.5835 8.81819 2423 0.989322 1 0
240 1 58.71 31.6651 1.78701 5.19803 240 0.156311 1 0
238 1 58.71 33.4613 1.70079 3.40484 238 -0.215612 1 0
936 1 58.71 10.5291 12.3811 15.8029 0 0.0 1 0
241 1 58.71 35.1714 3.48372 3.49943 0 0.0 1 0
242 1 58.71 1.75312 5.30496 3.42467 0 0.0 1 0
243 1 58.71 1.75176 3.48616 5.25677 0 0.0 1 0
244 1 58.71 0.0958966 5.21539 5.27059 0 0.0 1 0
245 1 58.71 3.45868 3.51291 3.48024 0 0.0 1 0
246 1 58.71 5.26462 5.31265 3.43699 0 0.0 1 0
247 1 58.71 5.22434 3.53508 5.19493 0 0.0 1 0
248 1 58.71 3.43967 5.26442 5.26167 0 0.0 1 0
249 1 58.71 7.07452 3.50911 3.48689 0 0.0 1 0
252 1 58.71 6.99823 5.28138 5.32458 0 0.0 1 0
250 1 58.71 8.82486 5.31668 3.50754 0 0.0 1 0
251 1 58.71 8.68719 3.65508 5.34041 0 0.0 1 0
253 1 58.71 10.5398 3.54596 3.65683 0 0.0 1 0
256 1 58.71 10.4732 5.31645 5.29668 0 0.0 1 0
254 1 58.71 12.2306 5.19608 3.56155 0 0.0 1 0
255 1 58.71 12.3183 3.50863 5.23782 0 0.0 1 0
257 1 58.71 14.0815 3.47085 3.51343 0 0.0 1 0
258 1 58.71 15.8723 5.16071 3.58563 0 0.0 1 0
259 1 58.71 15.9577 3.46879 5.22297 0 0.0 1 0
260 1 58.71 14.0632 5.29216 5.26973 0 0.0 1 0
261 1 58.71 17.6692 3.52294 3.52075 261 0.1895 1 0
264 1 58.71 17.6445 5.20085 5.26078 264 0.504629 1 0
262 1 58.71 19.4705 5.22309 3.57217 262 -1.04201 1 0
263 1 58.71 19.4144 3.47565 5.31786 263 -0.426913 1 0
265 1 58.71 21.0505 3.38858 3.52245 265 0.522497 1 0
268 1 58.71 21.224 5.23922 5.16399 268 -0.463029 1 0
266 1 58.71 22.8782 5.24347 3.48455 266 -0.12517 1 0
267 1 58.71 22.9202 3.4289 5.30409 267 -0.600405 1 0
269 1 58.71 24.5828 3.50779 3.57601 269 0.156194 1 0
270 1 58.71 26.2872 5.23421 3.5749 270 0.949701 1 0
271 1 58.71 26.3259 3.56636 5.2492 271 0.280674 1 0
272 1 58.71 24.6195 5.26236 5.27125 272 -0.668599 1 0
273 1 58.71 28.0947 3.5044 3.56453 273 0.0364153 1 0
276 1 58.71 28.1398 5.25498 5.2908 276 0.238624 1 0
274 1 58.71 29.8836 5.19675 3.40817 274 0.221191 1 0
275 1 58.71 29.9035 3.52579 5.25804 275 0.312971 1 0
277 1 58.71 31.67 3.41415 3.44752 277 -0.027878 1 0
280 1 58.71 31.7167 5.26128 5.21668 280 -0.200084 1 0
278 1 58.71 33.486 5.24532 3.46956 278 -0.193181 1 0
279 1 58.71 33.5303 3.43258 5.19261 279 -1.03026 1 0
281 1 58.71 0.0483641 7.11318 3.48009 0 0.0 1 0
283 1 58.71 1.83917 7.05201 5.23032 0 0.0 1 0
285 1 58.71 3.54602 7.0234 3.46578 0 0.0 1 0
287 1 58.71 5.30016 7.07208 5.22234 0 0.0 1 0
289 1 58.71 7.06199 7.09252 3.53821 0 0.0 1 0
291 1 58.71 8.80116 7.00714 5.28541 0 0.0 1 0
293 1 58.71 10.6115 7.06003 3.50833 0 0.0 1 0
295 1 58.71 12.2754 6.947 5.38101 0 0.0 1 0
297 1 58.71 14.0655 6.93635 3.57655 0 0.0 1 0
299 1 58.71 15.9322 6.93837 5.25941 0 0.0 1 0
301 1 58.71 17.6158 6.97099 3.54333 301 -0.0971285 1 0
303 1 58.71 19.4063 7.02892 5.2269 303 -0.109444 1 0
305 1 58.71 21.0548 7.07578 3.43086 305 0.631869 1 0
307 1 58.71 22.8482 6.9823 5.21355 307 -0.0902933 1 0
309 1 58.71 24.636 6.96658 3.52073 309 -0.153681 1 0
311 1 58.71 26.3876 6.97614 5.25022 311 -0.28109 1 0
313 1 58.71 28.1038 6.82875 3.45899 313 0.216017 1 0
315 1 58.71 30.0511 6.96621 5.26997 315 -0.839236 1 0
317 1 58.71 31.7442 7.02339 3.39295 317 -0.224216 1 0
319 1 58.71 33.4317 7.07167 5.21364 319 0.460345 1 0
282 1 58.71 1.82292 8.7267 3.55009 0 0.0 1 0
284 1 58.71 0.0471969 8.81712 5.25727 0 0.0 1 0
321 1 58.71 0.0159272 10.5959 3.48775 0 0.0 1 0
323 1 58.71 1.90485 10.4661 5.188 0 0.0 1 0
286 1 58.71 5.26434 8.82325 3.46349 0 0.0 1 0
288 1 58.71 3.62316 8.78609 5.19713 0 0.0 1 0
325 1 58.71 3.54879 10.5646 3.47543 0 0.0 1 0
327 1 58.71 5.34742 10.5459 5.23088 0 0.0 1 0
292 1 58.71 7.06854 8.80845 5.29246 0 0.0 1 0
329 1 58.71 6.98976 10.5981 3.49588 0 0.0 1 0
290 1 58.71 8.79008 8.75886 3.6 0 0.0 1 0
296 1 58.71 10.6174 8.784 5.32474 0 0.0 1 0
331 1 58.71 8.76364 10.5398 5.16447 0 0.0 1 0
333 1 58.71 10.6574 10.5287 3.50373 0 0.0 1 0
294 1 58.71 12.4088 8.7699 3.55514 0 0.0 1 0
335 1 58.71 12.4401 10.5045 5.27901 0 0.0 1 0
298 1 58.71 15.8061 8.71992 3.50547 0 0.0 1 0
300 1 58.71 14.1509 8.78756 5.30094 0 0.0 1 0
337 1 58.71 14.1682 10.5639 3.5773 0 0.0 1 0
339 1 58.71 15.9704 10.5708 5.30803 0 0.0 1 0
304 1 58.71 17.6066 8.76274 5.25343 304 -0.175052 1 0
341 1 58.71 17.633 10.5701 3.51353 341 -0.181199 1 0
302 1 58.71 19.3082 8.76596 3.5689 302 0.469944 1 0
308 1 58.71 21.1309 8.79206 5.35408 308 0.590427 1 0
343 1 58.71 19.446 10.4383 5.30532 343 -0.691048 1 0
345 1 58.71 21.0805 10.5356 3.47451 345 0.333307 1 0
306 1 58.71 22.7874 8.76846 3.46452 306 0.223218 1 0
347 1 58.71 22.8336 10.5803 5.19703 347 0.386292 1 0
310 1 58.71 26.4591 8.73978 3.43969 310 -0.601653 1 0
312 1 58.71 24.5785 8.81442 5.15517 312 0.396379 1 0
349 1 58.71 24.6394 10.5384 3.54413 349 0.183154 1 0
351 1 58.71 26.4049 10.5391 5.29119 351 0.237214 1 0
316 1 58.71 28.1599 8.60835 5.27766 316 0.221794 1 0
353 1 58.71 28.0992 10.4762 3.52113 353 0.405573 1 0
314 1 58.71 29.9203 8.71913 3.51669 314 -0.206544 1 0
320 1 58.71 31.795 8.79608 5.25877 320 -1.07837 1 0
355 1 58.71 29.9764 10.5086 5.22533 355 -0.632602 1 0
357 1 58.71 31.6903 10.5798 3.48437 357 0.391354 1 0
318 1 58.71 33.5598 8.77746 3.50148 318 -0.662492 1 0
359 1 58.71 33.5743 10.4596 5.18158 359 -1.08602 1 0
322 1 58.71 1.70608 12.3192 3.4273 0 0.0 1 0
324 1 58.71 0.119039 12.2449 5.23709 0 0.0 1 0
361 1 58.71 0.0882996 14.103 3.39448 0 0.0 1 0
363 1 58.71 1.73581 14.0678 5.27089 0 0.0 1 0
326 1 58.71 5.2786 12.4004 3.49265 0 0.0 1 0
328 1 58.71 3.56871 12.3425 5.25438 0 0.0 1 0
365 1 58.71 3.54745 14.0511 3.51894 0 0.0 1 0
367 1 58.71 5.32836 14.0921 5.20281 0 0.0 1 0
332 1 58.71 7.02468 12.3129 5.27098 0 0.0 1 0
369 1 58.71 7.07905 14.07 3.42886 0 0.0 1 0
330 1 58.71 8.77517 12.2958 3.4616 0 0.0 1 0
336 1 58.71 10.4616 12.326 5.27732 0 0.0 1 0
371 1 58.71 8.86684 14.0914 5.24279 0 0.0 1 0
373 1 58.71 10.5582 14.056 3.50064 0 0.0 1 0
334 1 58.71 12.4484 12.2718 3.58839 0 0.0 1 0
375 1 58.71 12.3636 14.0108 5.31979 0 0.0 1 0
338 1 58.71 15.8586 12.3281 3.48181 0 0.0 1 0
340 1 58.71 14.1847 12.2588 5.29819 0 0.0 1 0
377 1 58.71 14.1474 14.0333 3.56508 0 0.0 1 0
379 1 58.71 15.8573 13.9361 5.32693 0 0.0 1 0
344 1 58.71 17.6723 12.2437 5.24085 344 0.27267 1 0
381 1 58.71 17.6398 14.052 3.56067 381 -0.387096 1 0
342 1 58.71 19.4202 12.2122 3.48694 342 -0.222673 1 0
348 1 58.71 21.1299 12.3526 5.23848 348 -0.112798 1 0
383 1 58.71 19.4025 14.0595 5.22155 383 -0.358132 1 0
385 1 58.71 21.176 14.1548 3.53538 385 -0.840963 1 0
346 1 58.71 22.8037 12.295 3.43441 346 0.555587 1 0
387 1 58.71 22.9055 14.0494 5.17675 387 0.0868548 1 0
350 1 58.71 26.4488 12.3416 3.51453 350 -0.32461 1 0
352 1 58.71 24.684 12.395 5.275 352 -0.252057 1 0
389 1 58.71 24.6886 14.0885 3.47437 389 -0.357864 1 0
391 1 58.71 26.5052 14.0262 5.22085 391 -0.779608 1 0
356 1 58.71 28.1962 12.3365 5.25627 356 0.0611548 1 0
393 1 58.71 28.1263 14.1053 3.48723 393 1.65237 1 0
354 1 58.71 29.8754 12.1855 3.53096 354 0.0412502 1 0
360 1 58.71 31.6969 12.2776 5.29734 360 0.258553 1 0
395 1 58.71 29.905 14.1442 5.24527 395 -0.150085 1 0
397 1 58.71 31.6095 13.9757 3.50571 397 0.50956 1 0
358 1 58.71 33.4733 12.3191 3.41256 358 -0.134648 1 0
399 1 58.71 33.5232 14.046 5.26622 399 -0.139046 1 0
362 1 58.71 1.81442 15.784 3.3664 0 0.0 1 0
364 1 58.71 0.00822202 15.797 5.22554 0 0.0 1 0
366 1 58.71 5.19107 15.7761 3.44318 0 0.0 1 0
368 1 58.71 3.50155 15.8121 5.21531 0 0.0 1 0
372 1 58.71 7.03904 15.7611 5.21994 0 0.0 1 0
370 1 58.71 8.90206 15.7954 3.52517 0 0.0 1 0
376 1 58.71 10.5993 15.7958 5.34158 0 0.0 1 0
374 1 58.71 12.3654 15.844 3.59284 0 0.0 1 0
378 1 58.71 15.8087 15.798 3.52579 0 0.0 1 0
380 1 58.71 14.1465 15.903 5.23797 0 0.0 1 0
384 1 58.71 17.5834 15.8753 5.21175 384 -0.616569 1 0
382 1 58.71 19.2445 15.9502 3.5184 382 1.12593 1 0
388 1 58.71 21.1364 15.8428 5.27857 388 -0.477345 1 0
386 1 58.71 22.8901 15.8528 3.53231 386 0.131785 1 0
390 1 58.71 26.5056 15.6951 3.50762 390 -1.56108 1 0
392 1 58.71 24.6296 15.8411 5.24475 392 0.615295 1 0
396 1 58.71 28.2303 15.822 5.22297 396 -0.287061 1 0
394 1 58.71 29.9782 15.9206 3.4116 394 -0.286076 1 0
400 1 58.71 31.673 15.7427 5.20515 400 0.454307 1 0
398 1 58.71 33.3624 15.8084 3.47741 398 0.84573 1 0
932 1 58.71 7.12355 12.4029 15.8193 0 0.0 1 0
402 1 58.71 1.80322 1.80328 7.07633 0 0.0 1 0
1125 1 58.71 3.47909 10.5821 17.6111 0 0.0 1 0
406 1 58.71 5.19442 1.77288 7.10418 0 0.0 1 0
2809 1 58.71 6.99901 17.5961 14.0729 0 0.0 1 0
410 1 58.71 8.66157 1.80096 6.95696 0 0.0 1 0
967 1 58.71 5.1882 14.0465 15.8153 0 0.0 1 0
414 1 58.71 12.3677 1.80128 6.89737 0 0.0 1 0
928 1 58.71 3.4658 12.322 15.9009 0 0.0 1 0
418 1 58.71 15.8935 1.81509 6.99699 0 0.0 1 0
963 1 58.71 1.6983 14.0801 15.8849 0 0.0 1 0
422 1 58.71 19.3609 1.6787 7.08229 422 -0.315561 1 0
924 1 58.71 0.0236441 12.227 15.8281 0 0.0 1 0
426 1 58.71 22.9021 1.79555 7.03642 426 -0.661374 1 0
2429 1 58.71 24.6443 17.5478 7.06351 2429 0.151738 1 0
430 1 58.71 26.3258 1.77155 7.18162 430 0.395331 1 0
959 1 58.71 33.509 10.4257 15.8856 959 -0.484952 1 0
434 1 58.71 29.9268 1.83049 7.12428 434 0.445518 1 0
1106 1 58.71 22.8776 8.79302 17.5639 1106 0.131174 1 0
438 1 58.71 33.5212 1.66894 6.9804 438 -1.05455 1 0
441 1 58.71 -0.020616 3.46586 6.97844 0 0.0 1 0
442 1 58.71 1.7453 5.26717 6.98893 0 0.0 1 0
445 1 58.71 3.53297 3.50604 6.9807 0 0.0 1 0
446 1 58.71 5.17604 5.25547 6.98652 0 0.0 1 0
449 1 58.71 6.9299 3.51179 7.14498 0 0.0 1 0
450 1 58.71 8.6965 5.31885 7.11899 0 0.0 1 0
453 1 58.71 10.5296 3.50704 7.05938 0 0.0 1 0
454 1 58.71 12.2774 5.25358 6.99973 0 0.0 1 0
457 1 58.71 14.145 3.61239 7.01567 0 0.0 1 0
458 1 58.71 15.9888 5.2772 7.05208 0 0.0 1 0
461 1 58.71 17.63 3.43826 7.1165 461 0.530444 1 0
462 1 58.71 19.3986 5.31614 6.972 462 -0.050387 1 0
465 1 58.71 21.101 3.55445 7.09103 465 0.376287 1 0
466 1 58.71 22.9079 5.22635 7.07656 466 -0.246864 1 0
469 1 58.71 24.5989 3.48367 7.15801 469 0.57534 1 0
470 1 58.71 26.3441 5.34426 7.02861 470 -0.0771352 1 0
473 1 58.71 28.1309 3.51573 7.1023 473 -0.727657 1 0
474 1 58.71 29.8571 5.11979 7.08579 474 1.18879 1 0
477 1 58.71 31.7832 3.52412 7.03115 477 -0.0345053 1 0
478 1 58.71 33.459 5.38221 6.86704 478 0.293851 1 0
481 1 58.71 35.2277 7.03915 6.97572 0 0.0 1 0
485 1 58.71 3.50686 6.98644 7.05847 0 0.0 1 0
489 1 58.71 7.0069 7.1101 7.1028 0 0.0 1 0
493 1 58.71 10.5216 7.10635 7.07803 0 0.0 1 0
497 1 58.71 14.1224 7.01012 7.00486 0 0.0 1 0
501 1 58.71 17.6386 7.04111 7.11299 501 0.278378 1 0
505 1 58.71 21.1864 6.95285 7.04343 505 -0.253074 1 0
509 1 58.71 24.5234 6.98655 6.93582 509 1.06406 1 0
513 1 58.71 28.1854 7.02096 7.04459 513 0.0481086 1 0
517 1 58.71 31.6497 7.05586 7.05608 517 -0.0763118 1 0
482 1 58.71 1.80241 8.79279 6.94163 0 0.0 1 0
521 1 58.71 0.116524 10.5331 7.01095 0 0.0 1 0
486 1 58.71 5.27479 8.79173 6.98242 0 0.0 1 0
525 1 58.71 3.56174 10.5812 6.9877 0 0.0 1 0
529 1 58.71 6.93522 10.5769 6.96414 0 0.0 1 0
490 1 58.71 8.70399 8.88425 7.00463 0 0.0 1 0
533 1 58.71 10.5921 10.5994 6.96031 0 0.0 1 0
494 1 58.71 12.2392 8.78955 7.1236 0 0.0 1 0
498 1 58.71 15.8347 8.74858 7.0128 0 0.0 1 0
537 1 58.71 14.1652 10.5151 7.04458 0 0.0 1 0
541 1 58.71 17.5924 10.5029 7.00966 541 0.553114 1 0
502 1 58.71 19.3904 8.77297 7.00724 502 -0.091423 1 0
545 1 58.71 21.1743 10.6315 7.00796 545 0.46664 1 0
506 1 58.71 22.9232 8.72103 7.03676 506 0.387994 1 0
510 1 58.71 26.3733 8.81217 7.02898 510 -0.0547837 1 0
549 1 58.71 24.6698 10.6206 6.98895 549 -0.493607 1 0
553 1 58.71 28.1799 10.5456 7.03786 553 -0.259732 1 0
514 1 58.71 29.904 8.83074 7.06541 514 0.357132 1 0
557 1 58.71 31.681 10.57 7.02372 557 0.202038 1 0
518 1 58.71 33.4624 8.80154 6.96898 518 0.309512 1 0
522 1 58.71 1.80308 12.2732 7.0057 0 0.0 1 0
561 1 58.71 0.0655109 14.0125 7.04592 0 0.0 1 0
526 1 58.71 5.2735 12.3394 7.12742 0 0.0 1 0
565 1 58.71 3.55803 14.1531 6.9217 0 0.0 1 0
569 1 58.71 7.02027 13.9575 7.06746 0 0.0 1 0
530 1 58.71 8.77798 12.2371 6.99949 0 0.0 1 0
573 1 58.71 10.5279 13.9887 7.07143 0 0.0 1 0
534 1 58.71 12.326 12.3222 7.01828 0 0.0 1 0
538 1 58.71 15.7962 12.2798 7.03575 0 0.0 1 0
577 1 58.71 14.1156 14.125 7.03145 0 0.0 1 0
581 1 58.71 17.5786 14.0361 7.02682 581 0.387043 1 0
542 1 58.71 19.4288 12.2936 7.06002 542 -0.47571 1 0
585 1 58.71 21.1105 14.0232 7.03814 585 0.146552 1 0
546 1 58.71 22.9235 12.3984 6.96546 546 0.0471791 1 0
550 1 58.71 26.392 12.3302 7.00788 550 0.615692 1 0
589 1 58.71 24.7008 14.1275 7.02321 589 -0.0745444 1 0
593 1 58.71 28.1973 14.0959 7.03575 593 0.142128 1 0
554 1 58.71 29.933 12.2799 7.00378 554 -0.285108 1 0
597 1 58.71 31.6533 14.0121 6.91977 597 0.79322 1 0
558 1 58.71 33.4689 12.2736 7.00193 558 0.211801 1 0
562 1 58.71 1.75991 15.8021 6.97209 0 0.0 1 0
566 1 58.71 5.32444 15.8542 7.01517 0 0.0 1 0
570 1 58.71 8.74368 15.8222 6.92275 0 0.0 1 0
574 1 58.71 12.4242 15.8121 6.96311 0 0.0 1 0
578 1 58.71 15.815 15.8474 7.00692 0 0.0 1 0
582 1 58.71 19.2914 15.8667 7.01982 582 0.0233076 1 0
586 1 58.71 22.9189 15.71 6.97976 586 -0.297581 1 0
590 1 58.71 26.4029 15.8048 6.94922 590 0.500617 1 0
594 1 58.71 29.9776 15.7901 7.06569 594 0.0491428 1 0
598 1 58.71 33.4366 15.7655 6.99464 598 0.393501 1 0
955 1 58.71 29.9095 10.5433 15.9052 955 -0.00839464 1 0
404 1 58.71 35.225 1.80091 8.71512 0 0.0 1 0
920 1 58.71 31.5805 8.70765 15.912 920 1.03344 1 0
602 1 58.71 1.73115 1.73039 10.4807 0 0.0 1 0
619 1 58.71 15.7993 0.0389279 12.3536 0 0.0 1 0
408 1 58.71 3.43392 1.81627 8.77236 0 0.0 1 0
916 1 58.71 28.2692 8.74508 15.9183 916 -1.27361 1 0
606 1 58.71 5.21807 1.89732 10.607 0 0.0 1 0
412 1 58.71 7.00092 1.85237 8.86051 0 0.0 1 0
951 1 58.71 26.4126 10.5702 15.8584 951 0.326997 1 0
2821 1 58.71 17.6227 17.5968 13.9649 2821 0.823425 1 0
416 1 58.71 10.5039 1.75696 8.79165 0 0.0 1 0
610 1 58.71 8.76006 1.77527 10.4713 0 0.0 1 0
25 1 58.71 21.1075 0.0256005 0.000134915 25 0.291578 1 0
912 1 58.71 24.7124 8.84251 15.7381 912 -0.454702 1 0
614 1 58.71 12.3094 1.84558 10.4818 0 0.0 1 0
2233 1 58.71 28.1269 17.5571 3.56379 2233 0.283579 1 0
420 1 58.71 14.1382 1.73243 8.79214 0 0.0 1 0
947 1 58.71 22.9597 10.4929 15.8255 947 -0.758924 1 0
618 1 58.71 15.7494 1.73869 10.6124 0 0.0 1 0
424 1 58.71 17.5655 1.75897 8.84463 424 0.334865 1 0
617 1 58.71 14.09 0.0337609 10.5509 0 0.0 1 0
943 1 58.71 19.379 10.504 15.7436 943 -0.159095 1 0
428 1 58.71 21.1252 1.79243 8.82719 428 0.173275 1 0
622 1 58.71 19.3335 1.83457 10.5809 622 -0.309105 1 0
825 1 58.71 21.1302 0.0582833 14.0945 825 -0.541262 1 0
1185 1 58.71 21.1611 14.1852 17.6261 1185 -0.625928 1 0
626 1 58.71 22.8978 1.73583 10.498 626 -0.437747 1 0
613 1 58.71 10.5873 0.0584654 10.5619 0 0.0 1 0
432 1 58.71 24.6229 1.7587 8.85923 432 0.217631 1 0
130 1 58.71 8.912 12.2975 0.0242756 0 0.0 1 0
630 1 58.71 26.5153 1.80247 10.5884 630 -0.224056 1 0
436 1 58.71 28.2604 1.80284 8.79438 436 -1.16655 1 0
908 1 58.71 21.127 8.74788 15.8621 908 0.0683347 1 0
904 1 58.71 17.6728 8.73334 15.865 904 -0.509774 1 0
440 1 58.71 31.7106 1.77835 8.77168 440 0.226677 1 0
634 1 58.71 29.9756 1.76824 10.5111 634 0.80609 1 0
1122 1 58.71 1.70116 12.3808 17.6385 0 0.0 1 0
939 1 58.71 15.8895 10.5117 15.8562 0 0.0 1 0
638 1 58.71 33.5168 1.73539 10.4298 638 -0.315136 1 0
443 1 58.71 1.70969 3.55027 8.71908 0 0.0 1 0
444 1 58.71 0.167287 5.3535 8.84292 0 0.0 1 0
641 1 58.71 0.0629049 3.43538 10.524 0 0.0 1 0
642 1 58.71 1.80892 5.36713 10.6333 0 0.0 1 0
447 1 58.71 5.13738 3.59386 8.8767 0 0.0 1 0
448 1 58.71 3.43754 5.2842 8.73257 0 0.0 1 0
645 1 58.71 3.40745 3.51218 10.5336 0 0.0 1 0
646 1 58.71 5.20784 5.28528 10.5444 0 0.0 1 0
452 1 58.71 6.89691 5.27272 8.86953 0 0.0 1 0
649 1 58.71 7.01678 3.58662 10.5267 0 0.0 1 0
451 1 58.71 8.68429 3.57931 8.74778 0 0.0 1 0
456 1 58.71 10.5271 5.36315 8.79507 0 0.0 1 0
650 1 58.71 8.73008 5.32094 10.452 0 0.0 1 0
653 1 58.71 10.4451 3.49925 10.4651 0 0.0 1 0
455 1 58.71 12.3063 3.54854 8.76244 0 0.0 1 0
654 1 58.71 12.3571 5.34673 10.5674 0 0.0 1 0
459 1 58.71 15.8947 3.50643 8.72604 0 0.0 1 0
460 1 58.71 14.1279 5.24453 8.75607 0 0.0 1 0
657 1 58.71 14.027 3.5172 10.6461 0 0.0 1 0
658 1 58.71 15.7846 5.26845 10.4988 0 0.0 1 0
464 1 58.71 17.6787 5.29476 8.76719 464 -0.493801 1 0
661 1 58.71 17.4607 3.56954 10.5184 661 0.914503 1 0
463 1 58.71 19.3475 3.57404 8.74731 463 0.194141 1 0
468 1 58.71 21.1279 5.3029 8.84818 468 0.246839 1 0
662 1 58.71 19.2953 5.2283 10.5442 662 0.246866 1 0
665 1 58.71 21.0471 3.55437 10.582 665 0.826405 1 0
467 1 58.71 22.8682 3.55897 8.86449 467 -0.312081 1 0
666 1 58.71 22.9057 5.30979 10.7188 666 -0.435999 1 0
471 1 58.71 26.4361 3.61328 8.80689 471 -0.394293 1 0
472 1 58.71 24.5977 5.30531 8.95941 472 0.303987 1 0
669 1 58.71 24.6598 3.47158 10.5113 669 0.30867 1 0
670 1 58.71 26.5446 5.28559 10.5235 670 -0.567332 1 0
476 1 58.71 28.1556 5.2332 8.7089 476 0.0199775 1 0
673 1 58.71 28.3459 3.44953 10.5459 673 -0.959218 1 0
475 1 58.71 29.9291 3.58135 8.72448 475 0.858546 1 0
480 1 58.71 31.741 5.30609 8.73884 480 0.00621489 1 0
674 1 58.71 29.9667 5.34214 10.5364 674 -0.38691 1 0
677 1 58.71 31.6189 3.66554 10.5672 677 0.71321 1 0
479 1 58.71 33.5186 3.5115 8.77145 479 -0.323054 1 0
678 1 58.71 33.4573 5.21028 10.6693 678 0.199808 1 0
483 1 58.71 1.71283 7.072 8.77807 0 0.0 1 0
681 1 58.71 0.0140781 7.01895 10.5914 0 0.0 1 0
487 1 58.71 5.26854 6.93475 8.75953 0 0.0 1 0
685 1 58.71 3.5539 7.08367 10.4722 0 0.0 1 0
689 1 58.71 6.98954 7.02536 10.5354 0 0.0 1 0
491 1 58.71 8.66946 7.10804 8.8389 0 0.0 1 0
693 1 58.71 10.5391 7.04923 10.5127 0 0.0 1 0
495 1 58.71 12.3626 7.03689 8.78908 0 0.0 1 0
499 1 58.71 15.8503 6.99717 8.77181 0 0.0 1 0
697 1 58.71 14.1816 7.06075 10.4923 0 0.0 1 0
701 1 58.71 17.6254 7.01637 10.5816 701 -0.577462 1 0
503 1 58.71 19.4522 6.99415 8.79658 503 -0.262081 1 0
705 1 58.71 21.1623 7.06217 10.6131 705 -0.352158 1 0
507 1 58.71 22.8848 7.01366 8.79247 507 0.452666 1 0
511 1 58.71 26.3519 6.99756 8.76036 511 0.324678 1 0
709 1 58.71 24.7038 7.07539 10.5966 709 -0.00885592 1 0
713 1 58.71 28.1519 7.02634 10.569 713 0.570373 1 0
515 1 58.71 29.9165 6.97291 8.82118 515 0.0794095 1 0
717 1 58.71 31.7156 7.09341 10.5743 717 0.0974068 1 0