ITEM: TIMESTEP
1000
ITEM: NUMBER OF ATOMS
4000
ITEM: BOX BOUNDS pp pp pp
0.0 35.2
0.0 35.2
0.0 35.2
ITEM: ATOMS id type mass x y z c_1[1] c_1[2] structure_types fault_types 
1000 1 58.71 31.6916 15.7978 15.8814 1000 0.158235 1 0
153 1 58.71 28.1841 10.4515 0.0647257 153 -0.108163 1 0
996 1 58.71 28.1279 15.787 15.8724 996 0.0195138 1 0
4 1 58.71 0.0515141 1.67855 1.75924 0 0.0 1 0
992 1 58.71 24.5405 15.8175 15.8399 992 -0.181563 1 0
2609 1 58.71 6.9807 17.554 10.65 0 0.0 1 0
988 1 58.71 21.1875 15.9316 15.8873 988 -0.288093 1 0
8 1 58.71 3.65165 1.62429 1.61813 0 0.0 1 0
984 1 58.71 17.6321 15.8604 15.7905 984 -0.577353 1 0
12 1 58.71 7.17806 1.68681 1.79976 0 0.0 1 0
1173 1 58.71 10.5819 14.0723 17.5827 0 0.0 1 0
980 1 58.71 14.1915 15.9241 15.8117 0 0.0 1 0
976 1 58.71 10.5627 15.7249 15.8547 0 0.0 1 0
16 1 58.71 10.58 1.74175 1.75514 0 0.0 1 0
37 1 58.71 31.7212 0.041044 0.0248654 37 -0.3372 1 0
972 1 58.71 7.08401 15.715 15.7766 0 0.0 1 0
2431 1 58.71 26.527 17.5363 8.73666 2431 -0.62339 1 0
407 1 58.71 5.16054 0.0658867 8.73552 0 0.0 1 0
968 1 58.71 3.58564 15.9725 15.7156 0 0.0 1 0
20 1 58.71 14.1764 1.61435 1.75635 0 0.0 1 0
964 1 58.71 0.0718222 15.8346 15.8347 0 0.0 1 0
24 1 58.71 17.664 1.76378 1.71684 24 -0.196718 1 0
134 1 58.71 12.397 12.4367 0.0708189 0 0.0 1 0
999 1 58.71 33.4232 14.1024 15.8244 999 0.208954 1 0
995 1 58.71 29.9801 14.0465 15.9266 995 -0.755609 1 0
28 1 58.71 21.0683 1.79457 1.78302 28 0.108818 1 0
130 1 58.71 8.77704 12.3214 0.0164855 0 0.0 1 0
837 1 58.71 31.5845 0.0893704 14.2098 837 0.0484434 1 0
121 1 58.71 35.1889 10.7356 0.00847626 0 0.0 1 0
38 1 58.71 33.4009 1.78138 0.00923254 38 0.456276 1 0
960 1 58.71 31.7767 12.253 15.7932 960 -0.558844 1 0
32 1 58.71 24.5781 1.7755 1.72011 32 0.202208 1 0
956 1 58.71 28.1651 12.2999 15.9263 956 -0.524968 1 0
36 1 58.71 28.1215 1.81393 1.91382 36 -0.212554 1 0
178 1 58.71 15.8049 15.7579 -0.00273059 0 0.0 1 0
205 1 58.71 3.55132 0.0352202 3.50203 0 0.0 1 0
154 1 58.71 29.8965 12.3413 0.134826 154 -0.314206 1 0
40 1 58.71 31.7443 1.74012 1.76816 40 -0.322458 1 0
89 1 58.71 7.02279 7.06941 0.0235161 0 0.0 1 0
1081 1 58.71 -0.00259449 7.00077 17.5525 0 0.0 1 0
2219 1 58.71 15.8155 17.5722 5.26126 0 0.0 1 0
1037 1 58.71 31.6286 -0.00540685 17.5805 1037 0.386635 1 0
43 1 58.71 1.74597 3.5096 1.72513 0 0.0 1 0
44 1 58.71 35.1932 5.33109 1.78985 0 0.0 1 0
1017 1 58.71 14.0738 0.0077326 17.5852 0 0.0 1 0
138 1 58.71 15.7516 12.453 0.0259748 0 0.0 1 0
47 1 58.71 5.41052 3.47246 1.68986 0 0.0 1 0
48 1 58.71 3.51743 5.41315 1.74239 0 0.0 1 0
90 1 58.71 8.75565 8.87256 0.0680294 0 0.0 1 0
52 1 58.71 7.14247 5.24397 1.79323 0 0.0 1 0
46 1 58.71 5.20737 5.30302 0.0206107 0 0.0 1 0
51 1 58.71 8.85904 3.58185 1.69539 0 0.0 1 0
78 1 58.71 33.3778 5.22088 0.0777367 78 0.287088 1 0
56 1 58.71 10.4725 5.33008 1.8574 0 0.0 1 0
1086 1 58.71 5.32985 8.83953 17.5154 0 0.0 1 0
55 1 58.71 12.1855 3.59555 1.8705 0 0.0 1 0
2407 1 58.71 5.23321 17.5675 8.79059 0 0.0 1 0
126 1 58.71 5.20165 12.4339 0.140504 0 0.0 1 0
59 1 58.71 15.9506 3.4323 1.77279 0 0.0 1 0
60 1 58.71 14.1071 5.30623 1.6191 0 0.0 1 0
1137 1 58.71 14.1014 10.6576 17.5877 0 0.0 1 0
64 1 58.71 17.5108 5.18426 1.73739 64 1.01573 1 0
2817 1 58.71 14.1033 17.5702 14.0885 0 0.0 1 0
63 1 58.71 19.4074 3.65618 1.66728 63 -0.35982 1 0
1070 1 58.71 26.4297 5.30054 17.5524 1070 -0.306256 1 0
68 1 58.71 21.1867 5.33368 1.71159 68 -0.604011 1 0
219 1 58.71 15.9193 0.0692714 5.16708 0 0.0 1 0
67 1 58.71 22.8086 3.44393 1.73274 67 0.329056 1 0
223 1 58.71 19.3045 0.00188247 5.16717 223 -0.040059 1 0
133 1 58.71 10.667 10.6274 0.0898558 0 0.0 1 0
71 1 58.71 26.4071 3.61066 1.76137 71 -0.405468 1 0
72 1 58.71 24.6327 5.23973 1.817 72 -0.826412 1 0
2213 1 58.71 10.5008 17.583 3.41336 0 0.0 1 0
76 1 58.71 28.1486 5.20614 1.70795 76 0.571227 1 0
98 1 58.71 15.8882 8.85283 0.0910652 0 0.0 1 0
75 1 58.71 29.9043 3.3656 1.79457 75 -0.1594 1 0
142 1 58.71 19.4018 12.3588 0.0977686 142 -0.0295459 1 0
80 1 58.71 31.5978 5.19857 1.77992 80 0.856805 1 0
53 1 58.71 10.5434 3.54673 0.0721285 0 0.0 1 0
79 1 58.71 33.4704 3.42812 1.86212 79 -0.274323 1 0
2 1 58.71 1.8682 1.67588 0.106917 0 0.0 1 0
83 1 58.71 1.71038 7.15194 1.70549 0 0.0 1 0
811 1 58.71 8.85932 0.0818286 15.8672 0 0.0 1 0
87 1 58.71 5.37393 7.05621 1.82519 0 0.0 1 0
74 1 58.71 29.969 5.21492 0.034383 74 -0.454084 1 0
91 1 58.71 8.77672 7.12466 1.7912 0 0.0 1 0
3037 1 58.71 31.7051 17.5943 17.5835 3037 0.146758 1 0
95 1 58.71 12.3786 6.94166 1.76088 0 0.0 1 0
1145 1 58.71 21.0373 10.728 17.6129 1145 0.444403 1 0
99 1 58.71 15.9475 7.10296 1.65534 0 0.0 1 0
413 1 58.71 10.6452 0.020061 6.94197 0 0.0 1 0
103 1 58.71 19.2933 7.0402 1.69557 103 0.317832 1 0
2611 1 58.71 8.79469 17.565 12.2542 0 0.0 1 0
107 1 58.71 22.8688 7.08856 1.67673 107 0.364778 1 0
1197 1 58.71 31.6691 13.951 17.5708 1197 0.56934 1 0
111 1 58.71 26.2905 7.04003 1.91001 111 0.41878 1 0
1009 1 58.71 7.12469 0.0911083 17.5454 0 0.0 1 0
115 1 58.71 29.9533 7.00192 1.8661 115 -0.0779131 1 0
1189 1 58.71 24.5131 14.0644 17.5651 1189 0.528057 1 0
119 1 58.71 33.4519 7.04776 1.69932 119 0.0400552 1 0
70 1 58.71 26.3495 5.30728 0.0481041 70 0.0847752 1 0
84 1 58.71 0.0872581 8.91293 1.77293 0 0.0 1 0
829 1 58.71 24.7097 -0.00105872 14.193 829 -0.635319 1 0
123 1 58.71 1.86971 10.5645 1.81954 0 0.0 1 0
2833 1 58.71 28.1926 17.5944 14.1457 2833 -0.441571 1 0
88 1 58.71 3.54971 8.71408 1.76561 0 0.0 1 0
129 1 58.71 6.9455 10.5935 0.0634724 0 0.0 1 0
127 1 58.71 5.29308 10.6082 1.88155 0 0.0 1 0
92 1 58.71 7.08467 8.80835 1.76697 0 0.0 1 0
2815 1 58.71 12.3366 17.6019 15.89 0 0.0 1 0
2239 1 58.71 33.5192 17.549 5.27556 2239 0.107601 1 0
96 1 58.71 10.5936 8.80076 1.78764 0 0.0 1 0
131 1 58.71 8.8243 10.5981 1.82288 0 0.0 1 0
1118 1 58.71 33.3679 8.77895 17.5946 1118 0.674874 1 0
3009 1 58.71 7.11097 17.5461 17.4792 0 0.0 1 0
135 1 58.71 12.3281 10.6269 1.79439 0 0.0 1 0
833 1 58.71 28.1417 0.0389037 14.0878 833 -0.425437 1 0
100 1 58.71 14.1001 8.91758 1.76464 0 0.0 1 0
203 1 58.71 1.75086 0.016173 5.37258 0 0.0 1 0
139 1 58.71 15.9238 10.6316 1.8351 0 0.0 1 0
104 1 58.71 17.6543 8.93501 1.8095 104 -0.46673 1 0
3033 1 58.71 28.1939 17.5806 17.5558 3033 -0.56468 1 0
631 1 58.71 26.3577 0.09106 12.4281 631 0.433995 1 0
108 1 58.71 21.1771 8.81885 1.77668 108 -1.12716 1 0
143 1 58.71 19.3589 10.5105 1.72907 143 0.471179 1 0
22 1 58.71 19.3659 1.83365 0.00515588 22 -0.328705 1 0
2417 1 58.71 13.9893 17.4492 7.06907 0 0.0 1 0
147 1 58.71 22.8216 10.5495 1.75149 147 0.346596 1 0
1170 1 58.71 8.77905 15.8406 17.5017 0 0.0 1 0
112 1 58.71 24.6336 8.86953 1.70677 112 0.00539284 1 0
54 1 58.71 12.2915 5.14506 0.0976033 0 0.0 1 0
151 1 58.71 26.4401 10.5433 1.73741 151 -0.165984 1 0
116 1 58.71 28.2078 8.64378 1.79987 116 -0.0788711 1 0
1177 1 58.71 14.1215 13.9759 17.4634 0 0.0 1 0
2437 1 58.71 31.7893 17.5368 7.01126 2437 -0.348359 1 0
120 1 58.71 31.7111 8.72254 1.77455 120 -1.23836 1 0
155 1 58.71 30.0079 10.5195 1.83104 155 -0.753091 1 0
1165 1 58.71 3.63148 14.1581 17.4576 0 0.0 1 0
1166 1 58.71 5.37349 15.8518 17.5703 0 0.0 1 0
159 1 58.71 33.342 10.6042 1.66061 159 0.646927 1 0
1010 1 58.71 8.80161 1.80483 17.545 0 0.0 1 0
124 1 58.71 35.1501 12.3779 1.72171 0 0.0 1 0
1109 1 58.71 24.5144 6.97744 17.494 1109 0.287754 1 0
163 1 58.71 1.71914 14.1675 1.79347 0 0.0 1 0
110 1 58.71 26.442 8.73819 0.0578256 110 -0.598748 1 0
128 1 58.71 3.45339 12.4354 1.88292 0 0.0 1 0
15 1 58.71 12.2435 -0.00936595 1.88377 0 0.0 1 0
167 1 58.71 5.29644 14.1797 1.78339 0 0.0 1 0
132 1 58.71 6.96929 12.3239 1.95546 0 0.0 1 0
839 1 58.71 33.406 0.0871883 15.783 839 0.391697 1 0
2401 1 58.71 0.0827779 17.6059 7.10223 0 0.0 1 0
136 1 58.71 10.4809 12.3874 1.90493 0 0.0 1 0
171 1 58.71 8.73046 14.0084 1.69416 0 0.0 1 0
1085 1 58.71 3.46541 7.08311 17.5571 0 0.0 1 0
235 1 58.71 29.8923 -0.00464707 5.26664 235 0.267325 1 0
175 1 58.71 12.3276 14.1338 1.79749 0 0.0 1 0
165 1 58.71 3.37164 14.0861 0.0631509 0 0.0 1 0
140 1 58.71 14.0856 12.3071 1.71704 0 0.0 1 0
1049 1 58.71 7.0593 3.47137 17.5686 0 0.0 1 0
179 1 58.71 15.9148 14.0941 1.76809 0 0.0 1 0
144 1 58.71 17.6291 12.2995 1.78764 144 0.208072 1 0
1182 1 58.71 19.3046 15.9181 17.5593 1182 1.02481 1 0
1190 1 58.71 26.322 15.8369 17.5378 1190 0.168078 1 0
148 1 58.71 21.1917 12.3685 1.77472 148 -0.834807 1 0
183 1 58.71 19.4333 14.1473 1.75218 183 -0.662908 1 0
1133 1 58.71 10.6489 10.4924 17.5298 0 0.0 1 0
1157 1 58.71 31.6476 10.5513 17.5808 1157 0.63525 1 0
187 1 58.71 22.8149 14.0793 1.72998 187 0.428032 1 0
174 1 58.71 12.2926 15.7784 0.0200384 0 0.0 1 0
152 1 58.71 24.6051 12.2584 1.68105 152 -0.126625 1 0
2439 1 58.71 33.5133 17.4881 8.79397 2439 -0.730009 1 0
191 1 58.71 26.3398 14.012 1.89301 191 0.823373 1 0
156 1 58.71 28.1542 12.2222 1.79639 156 -0.395391 1 0
41 1 58.71 35.1887 3.44199 0.11353 0 0.0 1 0
186 1 58.71 22.9426 15.8354 0.102421 186 -0.292115 1 0
160 1 58.71 31.6315 12.3433 1.76347 160 0.703841 1 0
195 1 58.71 29.8583 14.1479 1.83449 195 0.30309 1 0
1125 1 58.71 3.53968 10.5158 17.4321 0 0.0 1 0
1134 1 58.71 12.3651 12.3295 17.5597 0 0.0 1 0
199 1 58.71 33.4112 14.122 1.76454 199 -0.280152 1 0
2435 1 58.71 30.0431 17.564 8.79915 2435 -0.33568 1 0
164 1 58.71 35.1464 15.849 1.69817 0 0.0 1 0
45 1 58.71 3.481 3.52622 0.0313488 0 0.0 1 0
168 1 58.71 3.45614 15.9398 1.75696 0 0.0 1 0
172 1 58.71 6.99491 15.8431 1.67215 0 0.0 1 0
35 1 58.71 29.8206 0.0514209 1.80615 35 0.470803 1 0
176 1 58.71 10.489 15.7563 1.67832 0 0.0 1 0
117 1 58.71 31.6265 7.02444 0.0791775 117 0.427476 1 0
633 1 58.71 28.1503 0.0351277 10.5769 633 -0.66019 1 0
180 1 58.71 14.137 15.8439 1.79247 0 0.0 1 0
184 1 58.71 17.708 15.767 1.76063 184 -0.538261 1 0
1050 1 58.71 8.87485 5.24008 17.5584 0 0.0 1 0
188 1 58.71 21.0183 15.8909 1.75285 188 1.2609 1 0
125 1 58.71 3.58996 10.5386 0.0659387 0 0.0 1 0
1082 1 58.71 1.63836 8.8026 17.61 0 0.0 1 0
192 1 58.71 24.6568 15.7482 1.94102 192 -0.144186 1 0
196 1 58.71 28.1704 15.729 1.81832 196 -0.334544 1 0
1106 1 58.71 22.8661 8.80103 17.5458 1106 -0.254151 1 0
200 1 58.71 31.6358 15.8786 1.79573 200 0.456918 1 0
895 1 58.71 12.4031 6.98388 15.9352 0 0.0 1 0
991 1 58.71 26.3405 14.0349 15.8833 991 -0.0582047 1 0
202 1 58.71 1.78795 1.70754 3.56622 0 0.0 1 0
2015 1 58.71 12.3158 17.5993 1.77592 0 0.0 1 0
204 1 58.71 0.059958 1.80376 5.34603 0 0.0 1 0
952 1 58.71 24.5289 12.3242 15.8935 952 0.581444 1 0
206 1 58.71 5.32208 1.70875 3.4311 0 0.0 1 0
987 1 58.71 22.7659 14.0541 15.8278 987 0.486885 1 0
208 1 58.71 3.58074 1.6667 5.27005 0 0.0 1 0
983 1 58.71 19.3281 14.1884 15.8492 983 0.761807 1 0
212 1 58.71 7.0304 1.64869 5.1911 0 0.0 1 0
210 1 58.71 8.80585 1.78327 3.56243 0 0.0 1 0
948 1 58.71 21.0793 12.3528 15.852 948 -0.817729 1 0
2637 1 58.71 31.7069 17.5526 10.543 2637 -0.0394646 1 0
216 1 58.71 10.5714 1.78649 5.2409 0 0.0 1 0
214 1 58.71 12.3469 1.73414 3.54722 0 0.0 1 0
944 1 58.71 17.6672 12.2998 15.7947 944 -0.458764 1 0
2633 1 58.71 28.2415 17.5807 10.6476 2633 -0.769025 1 0
218 1 58.71 15.8182 1.88591 3.52966 0 0.0 1 0
2835 1 58.71 29.9259 17.534 15.8507 2835 -0.343379 1 0
220 1 58.71 14.1826 1.81886 5.28882 0 0.0 1 0
979 1 58.71 15.9234 14.0297 15.7498 0 0.0 1 0
224 1 58.71 17.5499 1.82792 5.34355 224 0.717159 1 0
222 1 58.71 19.3462 1.78933 3.4362 222 -0.281972 1 0
940 1 58.71 14.1206 12.3575 15.6863 0 0.0 1 0
1146 1 58.71 22.8427 12.2857 17.5663 1146 -0.323638 1 0
228 1 58.71 21.1215 1.74213 5.20921 228 0.0288932 1 0
226 1 58.71 22.8619 1.66947 3.49491 226 0.00806765 1 0
975 1 58.71 12.3841 14.0797 15.9088 0 0.0 1 0
827 1 58.71 22.8322 0.0140854 15.8902 827 -0.507185 1 0
230 1 58.71 26.3739 1.77137 3.4872 230 -0.448361 1 0
1022 1 58.71 19.2872 1.6478 17.5267 1022 0.117123 1 0
232 1 58.71 24.6196 1.70558 5.23035 232 0.177596 1 0
2229 1 58.71 24.6992 17.5576 3.59825 2229 -0.227279 1 0
236 1 58.71 28.146 1.75434 5.29496 236 -0.367501 1 0
234 1 58.71 30.0312 1.71066 3.50668 234 -0.626831 1 0
971 1 58.71 8.81887 14.0348 15.8422 0 0.0 1 0
1174 1 58.71 12.423 15.8056 17.5954 0 0.0 1 0
240 1 58.71 31.7665 1.80518 5.29472 240 -0.916076 1 0
238 1 58.71 33.4978 1.66835 3.59819 238 0.211391 1 0
936 1 58.71 10.6464 12.2627 15.8554 0 0.0 1 0
241 1 58.71 0.0586904 3.45243 3.41868 0 0.0 1 0
242 1 58.71 1.74908 5.36246 3.45209 0 0.0 1 0
243 1 58.71 1.83998 3.48739 5.16477 0 0.0 1 0
244 1 58.71 35.1511 5.28236 5.14028 0 0.0 1 0
245 1 58.71 3.55992 3.48865 3.35926 0 0.0 1 0
246 1 58.71 5.29251 5.22261 3.47134 0 0.0 1 0
247 1 58.71 5.30877 3.39005 5.20647 0 0.0 1 0
248 1 58.71 3.58282 5.2915 5.26956 0 0.0 1 0
249 1 58.71 7.00814 3.50597 3.5158 0 0.0 1 0
252 1 58.71 6.91289 5.33898 5.2842 0 0.0 1 0
250 1 58.71 8.76305 5.27596 3.55426 0 0.0 1 0
251 1 58.71 8.73615 3.59024 5.27186 0 0.0 1 0
253 1 58.71 10.4482 3.55449 3.48479 0 0.0 1 0
256 1 58.71 10.5811 5.32826 5.25721 0 0.0 1 0
254 1 58.71 12.3586 5.39885 3.53538 0 0.0 1 0
255 1 58.71 12.3538 3.55514 5.27826 0 0.0 1 0
257 1 58.71 14.0601 3.62959 3.45769 0 0.0 1 0
258 1 58.71 15.8666 5.21526 3.49748 0 0.0 1 0
259 1 58.71 15.8294 3.65805 5.35305 0 0.0 1 0
260 1 58.71 14.1074 5.33752 5.33047 0 0.0 1 0
261 1 58.71 17.6413 3.55263 3.61944 261 0.216695 1 0
264 1 58.71 17.568 5.40185 5.2957 264 0.678873 1 0
262 1 58.71 19.4338 5.35523 3.45333 262 -0.708334 1 0
263 1 58.71 19.3782 3.58332 5.29881 263 0.307753 1 0
265 1 58.71 21.101 3.54226 3.50621 265 -0.126151 1 0
268 1 58.71 21.1239 5.38685 5.29328 268 0.457687 1 0
266 1 58.71 22.8475 5.31439 3.50994 266 0.0767814 1 0
267 1 58.71 22.8622 3.58158 5.14264 267 0.34382 1 0
269 1 58.71 24.6116 3.44526 3.4693 269 -0.169488 1 0
270 1 58.71 26.3383 5.30972 3.53436 270 0.601385 1 0
271 1 58.71 26.3543 3.48815 5.19591 271 0.186737 1 0
272 1 58.71 24.6554 5.24567 5.13387 272 -0.466656 1 0
273 1 58.71 28.1494 3.52212 3.53886 273 0.113384 1 0
276 1 58.71 28.2054 5.31829 5.21723 276 -0.606357 1 0
274 1 58.71 29.9991 5.14373 3.57377 274 -0.58729 1 0
275 1 58.71 29.9172 3.47991 5.31658 275 0.0206146 1 0
277 1 58.71 31.7641 3.47874 3.59049 277 -0.823834 1 0
280 1 58.71 31.7838 5.28191 5.21483 280 -0.556537 1 0
278 1 58.71 33.4507 5.36035 3.46101 278 0.233286 1 0
279 1 58.71 33.4389 3.60039 5.14789 279 1.31515 1 0
281 1 58.71 0.096987 7.09135 3.56882 0 0.0 1 0
283 1 58.71 1.69866 7.09548 5.37536 0 0.0 1 0
285 1 58.71 3.40358 7.12502 3.54645 0 0.0 1 0
287 1 58.71 5.21629 7.08738 5.19159 0 0.0 1 0
289 1 58.71 6.96339 7.09438 3.53888 0 0.0 1 0
291 1 58.71 8.76614 7.01749 5.31526 0 0.0 1 0
293 1 58.71 10.5139 6.97972 3.54245 0 0.0 1 0
295 1 58.71 12.3111 7.01865 5.3149 0 0.0 1 0
297 1 58.71 14.194 7.00661 3.58345 0 0.0 1 0
299 1 58.71 15.8824 7.07116 5.27734 0 0.0 1 0
301 1 58.71 17.6101 7.002 3.45825 301 0.0275234 1 0
303 1 58.71 19.4205 7.07576 5.19847 303 -0.832117 1 0
305 1 58.71 21.0845 7.06349 3.53062 305 0.763971 1 0
307 1 58.71 22.9453 7.11535 5.23584 307 -0.778063 1 0
309 1 58.71 24.5939 7.14616 3.52957 309 -0.0614299 1 0
311 1 58.71 26.449 7.14886 5.21409 311 -0.0727968 1 0
313 1 58.71 28.1302 6.91593 3.42798 313 0.715788 1 0
315 1 58.71 29.9132 7.01917 5.27322 315 0.254274 1 0
317 1 58.71 31.7126 6.96422 3.52861 317 -0.286018 1 0
319 1 58.71 33.512 7.08399 5.22849 319 -0.559907 1 0
282 1 58.71 1.72887 8.91319 3.5517 0 0.0 1 0
284 1 58.71 35.1133 8.79702 5.35865 0 0.0 1 0
321 1 58.71 35.0739 10.6129 3.52015 0 0.0 1 0
323 1 58.71 1.69031 10.6064 5.24966 0 0.0 1 0
286 1 58.71 5.15809 8.91234 3.54759 0 0.0 1 0
288 1 58.71 3.54128 8.93915 5.29966 0 0.0 1 0
325 1 58.71 3.44728 10.6253 3.54757 0 0.0 1 0
327 1 58.71 5.24308 10.5926 5.34891 0 0.0 1 0
292 1 58.71 7.00106 8.76234 5.30704 0 0.0 1 0
329 1 58.71 7.00972 10.4833 3.69088 0 0.0 1 0
290 1 58.71 8.88225 8.69992 3.50285 0 0.0 1 0
296 1 58.71 10.5367 8.83847 5.34302 0 0.0 1 0
331 1 58.71 8.87508 10.5204 5.28017 0 0.0 1 0
333 1 58.71 10.6117 10.4657 3.58812 0 0.0 1 0
294 1 58.71 12.354 8.75345 3.54418 0 0.0 1 0
335 1 58.71 12.2911 10.5766 5.23843 0 0.0 1 0
298 1 58.71 15.9372 8.82311 3.56782 0 0.0 1 0
300 1 58.71 14.011 8.89852 5.26213 0 0.0 1 0
337 1 58.71 14.1146 10.6963 3.44025 0 0.0 1 0
339 1 58.71 15.9238 10.5163 5.33409 0 0.0 1 0
304 1 58.71 17.615 8.74569 5.3357 304 0.220627 1 0
341 1 58.71 17.6119 10.5995 3.54477 341 0.0633606 1 0
302 1 58.71 19.3906 8.87016 3.42752 302 -0.461308 1 0
308 1 58.71 21.1727 8.79642 5.22908 308 -0.786071 1 0
343 1 58.71 19.2457 10.5689 5.26392 343 0.298697 1 0
345 1 58.71 20.9529 10.6102 3.54362 345 1.22105 1 0
306 1 58.71 22.8055 8.84886 3.4324 306 0.580808 1 0
347 1 58.71 22.8622 10.5054 5.22112 347 0.36306 1 0
310 1 58.71 26.5126 8.82973 3.50565 310 -0.40599 1 0
312 1 58.71 24.6485 8.78715 5.21947 312 -0.0600599 1 0
349 1 58.71 24.6311 10.5013 3.48941 349 -0.199054 1 0
351 1 58.71 26.4611 10.4905 5.29705 351 -0.936234 1 0
316 1 58.71 28.2523 8.88362 5.41134 316 -0.617679 1 0
353 1 58.71 28.1998 10.5971 3.63126 353 0.0898588 1 0
314 1 58.71 29.9575 8.74621 3.66893 314 -0.0579565 1 0
320 1 58.71 31.7952 8.71231 5.32874 320 -1.02691 1 0
355 1 58.71 29.9778 10.5274 5.31504 355 0.331206 1 0
357 1 58.71 31.7086 10.5546 3.50895 357 -0.308281 1 0
318 1 58.71 33.3294 8.83976 3.47011 318 1.48068 1 0
359 1 58.71 33.3852 10.4981 5.2418 359 0.0762886 1 0
322 1 58.71 1.66565 12.3687 3.48913 0 0.0 1 0
324 1 58.71 35.1567 12.2507 5.27368 0 0.0 1 0
361 1 58.71 35.1735 14.1381 3.47657 0 0.0 1 0
363 1 58.71 1.73441 14.1626 5.30551 0 0.0 1 0
326 1 58.71 5.28516 12.271 3.63387 0 0.0 1 0
328 1 58.71 3.49264 12.3409 5.42953 0 0.0 1 0
365 1 58.71 3.57802 14.1171 3.59331 0 0.0 1 0
367 1 58.71 5.3012 14.0864 5.33754 0 0.0 1 0
332 1 58.71 6.99555 12.311 5.33542 0 0.0 1 0
369 1 58.71 7.03935 14.1879 3.5617 0 0.0 1 0
330 1 58.71 8.67251 12.3424 3.66499 0 0.0 1 0
336 1 58.71 10.5722 12.3067 5.16468 0 0.0 1 0
371 1 58.71 8.75741 14.1823 5.34053 0 0.0 1 0
373 1 58.71 10.4829 14.0824 3.58099 0 0.0 1 0
334 1 58.71 12.3091 12.3957 3.48291 0 0.0 1 0
375 1 58.71 12.2091 14.0484 5.31866 0 0.0 1 0
338 1 58.71 15.8566 12.4023 3.51423 0 0.0 1 0
340 1 58.71 14.0533 12.2437 5.28381 0 0.0 1 0
377 1 58.71 14.0278 14.0858 3.46909 0 0.0 1 0
379 1 58.71 15.861 14.1326 5.2598 0 0.0 1 0
344 1 58.71 17.5741 12.4146 5.32802 344 -0.268378 1 0
381 1 58.71 17.5375 14.1741 3.55129 381 1.38613 1 0
342 1 58.71 19.318 12.3994 3.57669 342 -0.141375 1 0
348 1 58.71 21.1291 12.1139 5.32955 348 -0.259535 1 0
383 1 58.71 19.3917 14.0977 5.4312 383 -0.299411 1 0
385 1 58.71 21.0749 14.0216 3.57722 385 0.392216 1 0
346 1 58.71 22.85 12.2924 3.52825 346 0.1453 1 0
387 1 58.71 22.7445 14.0097 5.41273 387 0.374079 1 0
350 1 58.71 26.2615 12.1872 3.55901 350 0.95948 1 0
352 1 58.71 24.5537 12.3274 5.30714 352 0.369363 1 0
389 1 58.71 24.5714 14.0158 3.58754 389 -0.304384 1 0
391 1 58.71 26.2922 14.0635 5.23728 391 0.861169 1 0
356 1 58.71 28.1226 12.2933 5.36695 356 0.312588 1 0
393 1 58.71 28.1133 14.0516 3.6356 393 0.0850304 1 0
354 1 58.71 29.8826 12.3178 3.45038 354 0.223509 1 0
360 1 58.71 31.6514 12.3114 5.17794 360 0.265227 1 0
395 1 58.71 29.976 14.0463 5.29481 395 -0.430318 1 0
397 1 58.71 31.6288 14.1188 3.50913 397 0.947845 1 0
358 1 58.71 33.4888 12.437 3.54719 358 -0.91871 1 0
399 1 58.71 33.5377 13.9903 5.28572 399 -0.426105 1 0
362 1 58.71 1.89144 15.8154 3.52548 0 0.0 1 0
364 1 58.71 0.049508 15.8824 5.30448 0 0.0 1 0
366 1 58.71 5.23505 16.0269 3.52703 0 0.0 1 0
368 1 58.71 3.53112 15.908 5.42095 0 0.0 1 0
372 1 58.71 7.11554 15.9394 5.39256 0 0.0 1 0
370 1 58.71 8.65292 15.8911 3.45724 0 0.0 1 0
376 1 58.71 10.5494 15.8851 5.29181 0 0.0 1 0
374 1 58.71 12.2437 15.8597 3.51958 0 0.0 1 0
378 1 58.71 15.8892 15.8487 3.47017 0 0.0 1 0
380 1 58.71 14.039 15.8698 5.27105 0 0.0 1 0
384 1 58.71 17.6607 15.9383 5.38047 384 -0.558873 1 0
382 1 58.71 19.3974 15.8219 3.58308 382 -0.644842 1 0
388 1 58.71 20.9918 15.843 5.3026 388 1.34213 1 0
386 1 58.71 22.8214 15.7724 3.57085 386 -0.31303 1 0
390 1 58.71 26.4856 15.9193 3.5566 390 -0.275243 1 0
392 1 58.71 24.5795 15.7479 5.26576 392 0.492169 1 0
396 1 58.71 28.2146 15.7593 5.37304 396 -0.219883 1 0
394 1 58.71 29.9508 15.7837 3.6065 394 -0.224659 1 0
400 1 58.71 31.8147 15.8095 5.28981 400 -0.454348 1 0
398 1 58.71 33.5195 15.873 3.50399 398 -0.59768 1 0
932 1 58.71 7.13112 12.2166 15.9018 0 0.0 1 0
402 1 58.71 1.77463 1.68436 7.06291 0 0.0 1 0
225 1 58.71 21.0406 -0.00901589 3.43493 225 0.504657 1 0
406 1 58.71 5.25487 1.72711 6.87874 0 0.0 1 0
1178 1 58.71 15.8658 15.8088 17.5233 0 0.0 1 0
410 1 58.71 8.68883 1.6286 6.98745 0 0.0 1 0
967 1 58.71 5.3761 14.1565 15.7704 0 0.0 1 0
414 1 58.71 12.2826 1.82204 7.0995 0 0.0 1 0
928 1 58.71 3.59808 12.323 15.747 0 0.0 1 0
418 1 58.71 15.8035 1.774 6.98151 0 0.0 1 0
963 1 58.71 1.77621 14.1238 15.7808 0 0.0 1 0
422 1 58.71 19.4651 1.73441 6.97032 422 -0.550633 1 0
924 1 58.71 35.1499 12.3851 15.8816 0 0.0 1 0
426 1 58.71 22.9105 1.77507 6.90404 426 0.200333 1 0
617 1 58.71 14.0633 0.0113352 10.6079 0 0.0 1 0
430 1 58.71 26.3199 1.76946 7.08038 430 0.25494 1 0
959 1 58.71 33.5019 10.4262 15.8629 959 -0.421565 1 0
434 1 58.71 29.8516 1.83876 7.04426 434 0.180435 1 0
2033 1 58.71 28.0998 17.4597 0.0273728 2033 0.900281 1 0
438 1 58.71 33.5504 1.83037 6.90939 438 -0.508424 1 0
441 1 58.71 0.208317 3.53942 7.02602 0 0.0 1 0
442 1 58.71 1.76568 5.32319 7.1221 0 0.0 1 0
445 1 58.71 3.45279 3.53748 6.94909 0 0.0 1 0
446 1 58.71 5.33452 5.26497 6.97534 0 0.0 1 0
449 1 58.71 6.96473 3.49689 7.01038 0 0.0 1 0
450 1 58.71 8.84964 5.30519 7.01461 0 0.0 1 0
453 1 58.71 10.5331 3.50497 7.02843 0 0.0 1 0
454 1 58.71 12.3366 5.22612 6.99236 0 0.0 1 0
457 1 58.71 14.0774 3.57431 7.11863 0 0.0 1 0
458 1 58.71 15.8664 5.37854 7.06588 0 0.0 1 0
461 1 58.71 17.6866 3.47917 7.05882 461 -0.583327 1 0
462 1 58.71 19.3278 5.27364 6.99113 462 0.726448 1 0
465 1 58.71 21.2823 3.58537 6.95758 465 -0.793565 1 0
466 1 58.71 22.9788 5.44268 7.12332 466 -0.915118 1 0
469 1 58.71 24.6197 3.60222 7.0459 469 0.0818029 1 0
470 1 58.71 26.3517 5.30395 6.95891 470 0.381838 1 0
473 1 58.71 28.0859 3.50428 7.00397 473 0.201297 1 0
474 1 58.71 30.0402 5.25394 6.94735 474 -0.543934 1 0
477 1 58.71 31.6936 3.40553 6.97381 477 0.385638 1 0
478 1 58.71 33.5034 5.25634 6.99679 478 -0.33088 1 0
481 1 58.71 35.1232 7.05232 7.02106 0 0.0 1 0
485 1 58.71 3.58133 7.03926 7.06958 0 0.0 1 0
489 1 58.71 7.12263 6.94846 7.06923 0 0.0 1 0
493 1 58.71 10.5657 7.06351 7.04718 0 0.0 1 0
497 1 58.71 14.1883 7.08525 7.07746 0 0.0 1 0
501 1 58.71 17.6609 6.9813 7.08348 501 -0.477339 1 0
505 1 58.71 21.1392 7.08238 7.02264 505 0.144507 1 0
509 1 58.71 24.6005 7.07666 6.99909 509 0.882251 1 0
513 1 58.71 28.1327 6.94958 7.05237 513 0.404709 1 0
517 1 58.71 31.7244 7.03439 7.06438 517 0.495301 1 0
482 1 58.71 1.6896 8.89229 7.07831 0 0.0 1 0
521 1 58.71 0.0446084 10.6006 7.05452 0 0.0 1 0
486 1 58.71 5.31633 8.74406 7.09836 0 0.0 1 0
525 1 58.71 3.54656 10.5656 7.07579 0 0.0 1 0
529 1 58.71 7.00314 10.5119 7.07806 0 0.0 1 0
490 1 58.71 8.75545 8.83306 7.04931 0 0.0 1 0
533 1 58.71 10.6341 10.5129 7.08489 0 0.0 1 0
494 1 58.71 12.3952 8.83537 6.95965 0 0.0 1 0
498 1 58.71 15.8088 8.79852 7.1286 0 0.0 1 0
537 1 58.71 14.0399 10.6848 7.13221 0 0.0 1 0
541 1 58.71 17.4681 10.5838 7.04218 541 1.30116 1 0
502 1 58.71 19.3106 8.68614 7.07306 502 0.199283 1 0
545 1 58.71 21.0819 10.3893 7.09193 545 0.138663 1 0
506 1 58.71 22.8802 8.81651 7.06203 506 -0.098276 1 0
510 1 58.71 26.3321 8.72559 7.0073 510 0.754699 1 0
549 1 58.71 24.5487 10.4424 7.07624 549 0.934467 1 0
553 1 58.71 28.2444 10.536 7.09985 553 -0.198497 1 0
514 1 58.71 30.0129 8.83499 7.04312 514 -0.45269 1 0
557 1 58.71 31.6425 10.5484 7.12029 557 0.505782 1 0
518 1 58.71 33.4508 8.91867 7.08665 518 0.236872 1 0
522 1 58.71 1.75274 12.3316 7.0843 0 0.0 1 0
561 1 58.71 0.106163 14.0297 7.13123 0 0.0 1 0
526 1 58.71 5.31474 12.3362 7.1229 0 0.0 1 0
565 1 58.71 3.51704 14.0507 7.12663 0 0.0 1 0
569 1 58.71 7.03423 14.1611 7.0541 0 0.0 1 0
530 1 58.71 8.79487 12.2412 7.01462 0 0.0 1 0
573 1 58.71 10.5187 14.0901 7.09234 0 0.0 1 0
534 1 58.71 12.2216 12.3273 7.03271 0 0.0 1 0
538 1 58.71 15.7724 12.3904 7.15446 0 0.0 1 0
577 1 58.71 14.0376 14.1774 6.98776 0 0.0 1 0
581 1 58.71 17.631 14.105 7.08957 581 -0.00582009 1 0
542 1 58.71 19.3249 12.0989 6.98841 542 0.159114 1 0
585 1 58.71 21.1401 14.1192 7.10144 585 -0.535289 1 0
546 1 58.71 22.887 12.1794 7.10806 546 -0.800178 1 0
550 1 58.71 26.4351 12.1786 7.12167 550 -0.790125 1 0
589 1 58.71 24.5892 14.0186 7.01996 589 0.655602 1 0
593 1 58.71 28.1721 13.9792 7.05464 593 0.0273665 1 0
554 1 58.71 29.9427 12.2745 7.06931 554 0.0505332 1 0
597 1 58.71 31.7135 14.0796 6.99214 597 0.0982622 1 0
558 1 58.71 33.4002 12.161 6.96085 558 0.516706 1 0
562 1 58.71 1.74897 15.9006 7.13719 0 0.0 1 0
566 1 58.71 5.31671 15.8841 6.94307 0 0.0 1 0
570 1 58.71 8.77922 15.8763 7.15416 0 0.0 1 0
574 1 58.71 12.2643 15.8776 7.13842 0 0.0 1 0
578 1 58.71 15.8128 15.8252 7.08929 0 0.0 1 0
582 1 58.71 19.4004 15.8471 7.11352 582 -0.432566 1 0
586 1 58.71 22.8867 15.8149 6.94707 586 0.0675185 1 0
590 1 58.71 26.5243 15.7333 6.96822 590 -1.24524 1 0
594 1 58.71 29.8969 15.8179 6.95323 594 1.10092 1 0
598 1 58.71 33.5245 15.7642 7.09147 598 0.372838 1 0
955 1 58.71 29.9226 10.5323 15.8604 955 -0.150973 1 0
404 1 58.71 0.0072074 1.71123 8.75723 0 0.0 1 0
920 1 58.71 31.6805 8.76111 15.7188 920 -0.353381 1 0
602 1 58.71 1.70324 1.7351 10.4448 0 0.0 1 0
1194 1 58.71 29.9086 15.7928 17.5498 1194 0.285973 1 0
408 1 58.71 3.52711 1.83642 8.81187 0 0.0 1 0
916 1 58.71 28.0161 8.81692 15.8981 916 1.23556 1 0
606 1 58.71 5.27359 1.74079 10.6116 0 0.0 1 0
412 1 58.71 6.94376 1.73573 8.69422 0 0.0 1 0
951 1 58.71 26.3561 10.5669 15.8119 951 -0.248353 1 0
10 1 58.71 8.79149 1.58592 0.0790912 0 0.0 1 0
416 1 58.71 10.5061 1.78469 8.67237 0 0.0 1 0
610 1 58.71 8.899 1.79247 10.4365 0 0.0 1 0
619 1 58.71 15.951 0.0442499 12.3151 0 0.0 1 0
912 1 58.71 24.6089 8.8077 15.8482 912 -0.492994 1 0
614 1 58.71 12.3254 1.65269 10.4063 0 0.0 1 0
1158 1 58.71 33.5084 12.3107 17.5658 1158 -0.67484 1 0
420 1 58.71 14.138 1.87238 8.86032 0 0.0 1 0
947 1 58.71 22.7637 10.4876 15.8343 947 0.38993 1 0
618 1 58.71 15.7477 1.80352 10.5837 0 0.0 1 0
424 1 58.71 17.5589 1.64735 8.77272 424 0.222076 1 0
1042 1 58.71 1.7889 5.30497 17.5241 0 0.0 1 0
943 1 58.71 19.3249 10.5093 15.9576 943 0.919863 1 0
428 1 58.71 21.2518 1.83388 8.61301 428 -0.739734 1 0
622 1 58.71 19.4148 1.75527 10.4601 622 -0.0198644 1 0
1002 1 58.71 1.80679 1.63672 17.5827 0 0.0 1 0
14 1 58.71 12.2361 1.71714 0.0982382 0 0.0 1 0
626 1 58.71 22.9397 1.73224 10.5231 626 -0.238055 1 0
2019 1 58.71 15.7867 17.5368 1.76051 0 0.0 1 0
432 1 58.71 24.646 1.82479 8.77682 432 -0.178785 1 0
2829 1 58.71 24.5954 17.5825 14.0228 2829 0.225978 1 0
630 1 58.71 26.323 1.74937 10.5127 630 0.0802179 1 0
436 1 58.71 28.0136 1.75167 8.78922 436 1.00585 1 0
908 1 58.71 21.0274 8.75106 15.9209 908 0.363162 1 0
904 1 58.71 17.6821 8.91205 15.8928 904 -1.01158 1 0
440 1 58.71 31.6742 1.7337 8.86695 440 0.265318 1 0
634 1 58.71 29.8922 1.75597 10.5932 634 -0.0058978 1 0
2419 1 58.71 15.7993 17.5661 8.77149 0 0.0 1 0
939 1 58.71 15.8428 10.6176 15.7724 0 0.0 1 0
638 1 58.71 33.528 1.66954 10.5499 638 -1.36573 1 0
443 1 58.71 1.82948 3.52183 8.76103 0 0.0 1 0
444 1 58.71 35.1282 5.24453 8.77583 0 0.0 1 0
641 1 58.71 35.1701 3.41812 10.5768 0 0.0 1 0
642 1 58.71 1.73038 5.13657 10.5199 0 0.0 1 0
447 1 58.71 5.23794 3.43064 8.70243 0 0.0 1 0
448 1 58.71 3.56436 5.24815 8.83615 0 0.0 1 0
645 1 58.71 3.53994 3.52963 10.507 0 0.0 1 0
646 1 58.71 5.33622 5.22436 10.5526 0 0.0 1 0
452 1 58.71 7.14738 5.212 8.75609 0 0.0 1 0
649 1 58.71 7.02757 3.41203 10.4743 0 0.0 1 0
451 1 58.71 8.75282 3.52625 8.71659 0 0.0 1 0
456 1 58.71 10.6203 5.25859 8.77821 0 0.0 1 0
650 1 58.71 8.76581 5.25733 10.4589 0 0.0 1 0
653 1 58.71 10.6343 3.48516 10.4477 0 0.0 1 0
455 1 58.71 12.4154 3.58375 8.79847 0 0.0 1 0
654 1 58.71 12.3925 5.28139 10.5196 0 0.0 1 0
459 1 58.71 15.9286 3.61208 8.72945 0 0.0 1 0
460 1 58.71 14.1656 5.32115 8.77425 0 0.0 1 0
657 1 58.71 14.1014 3.57638 10.6166 0 0.0 1 0
658 1 58.71 15.8201 5.27076 10.6289 0 0.0 1 0
464 1 58.71 17.6162 5.2998 8.94481 464 0.470354 1 0
661 1 58.71 17.6685 3.49674 10.541 661 -0.295526 1 0
463 1 58.71 19.4019 3.53792 8.7656 463 0.274782 1 0
468 1 58.71 21.2395 5.25561 8.79903 468 -1.24456 1 0
662 1 58.71 19.3715 5.27626 10.606 662 0.908257 1 0
665 1 58.71 21.1576 3.40282 10.5624 665 -0.538839 1 0
467 1 58.71 22.9224 3.57491 8.79155 467 0.376221 1 0
666 1 58.71 22.7987 5.23372 10.5934 666 0.791887 1 0
471 1 58.71 26.5036 3.62911 8.86941 471 -1.15319 1 0
472 1 58.71 24.6859 5.34343 8.73865 472 0.114747 1 0
669 1 58.71 24.6662 3.59521 10.5924 669 0.0049339 1 0
670 1 58.71 26.4294 5.38828 10.5879 670 -0.116495 1 0
476 1 58.71 28.3203 5.25415 8.77104 476 -0.523512 1 0
673 1 58.71 28.1056 3.45111 10.5939 673 0.65776 1 0
475 1 58.71 29.9636 3.50368 8.79901 475 -0.357126 1 0
480 1 58.71 31.7579 5.27126 8.71678 480 -0.577203 1 0
674 1 58.71 30.0171 5.16037 10.6716 674 -0.328474 1 0
677 1 58.71 31.7497 3.47375 10.4652 677 -0.102693 1 0
479 1 58.71 33.462 3.51612 8.73453 479 0.149279 1 0
678 1 58.71 33.39 5.28152 10.5246 678 0.970866 1 0
483 1 58.71 1.65903 7.03971 8.86496 0 0.0 1 0
681 1 58.71 35.1753 7.05075 10.5831 0 0.0 1 0
487 1 58.71 5.33054 6.93061 8.84446 0 0.0 1 0
685 1 58.71 3.52698 6.912 10.6064 0 0.0 1 0
689 1 58.71 7.03703 6.97366 10.521 0 0.0 1 0
491 1 58.71 8.82156 7.00481 8.76758 0 0.0 1 0
693 1 58.71 10.6328 6.96849 10.5642 0 0.0 1 0
495 1 58.71 12.3544 6.98765 8.68461 0 0.0 1 0
499 1 58.71 15.9454 6.9835 8.8712 0 0.0 1 0
697 1 58.71 14.1283 7.14509 10.588 0 0.0 1 0
701 1 58.71 17.6471 7.02694 10.5112 701 0.475652 1 0
503 1 58.71 19.432 6.98444 8.81151 503 -0.384294 1 0
705 1 58.71 21.1352 6.91561 10.5337 705 0.00667395 1 0
507 1 58.71 22.932 7.05048 8.87999 507 -0.365161 1 0
511 1 58.71 26.4219 7.02653 8.86578 511 0.0107521 1 0
709 1 58.71 24.5174 7.03662 10.6652 709 0.398086 1 0
713 1 58.71 28.3298 6.96195 10.5661 713 -0.67908 1 0
515 1 58.71 29.9595 7.09278 8.75032 515 0.444254 1 0
717 1 58.71 31.7918 6.97363 10.5256 717 -1.46961 1 0
519 1 58.71 33.5343 7.04281 8.82925 519 -0.603604 1 0