ITEM: TIMESTEP
300
ITEM: NUMBER OF ATOMS
4000
ITEM: BOX BOUNDS pp pp pp
0.0 35.2
0.0 35.2
0.0 35.2
ITEM: ATOMS id type mass x y z c_1[1] c_1[2] structure_types fault_types 
1000 1 58.71 31.8365 15.8778 15.7907 1000 -0.702519 1 0
2615 1 58.71 12.365 17.5401 12.3414 0 0.0 1 0
996 1 58.71 28.3381 15.8089 15.8454 996 -0.883533 1 0
4 1 58.71 35.1885 1.72372 1.74288 0 0.0 1 0
992 1 58.71 24.678 15.9031 15.9473 992 -0.370966 1 0
209 1 58.71 7.05344 0.0120203 3.56655 0 0.0 1 0
988 1 58.71 21.1232 15.9016 15.8377 988 0.120771 1 0
8 1 58.71 3.48719 1.83192 1.73959 0 0.0 1 0
984 1 58.71 17.6179 15.8463 15.8348 984 0.524507 1 0
12 1 58.71 7.03619 1.77063 1.76258 0 0.0 1 0
93 1 58.71 10.5638 7.04932 0.0101966 0 0.0 1 0
980 1 58.71 14.0623 15.902 15.7585 0 0.0 1 0
976 1 58.71 10.5184 15.8148 15.8831 0 0.0 1 0
16 1 58.71 10.5873 1.70843 1.80288 0 0.0 1 0
10 1 58.71 8.77857 1.76046 0.031349 0 0.0 1 0
972 1 58.71 7.07998 15.8735 15.8238 0 0.0 1 0
2609 1 58.71 7.1113 17.5355 10.5674 0 0.0 1 0
35 1 58.71 29.8419 0.0308956 1.67584 35 0.463606 1 0
968 1 58.71 3.60794 15.84 15.7995 0 0.0 1 0
20 1 58.71 14.091 1.83553 1.85775 0 0.0 1 0
964 1 58.71 0.0580303 15.9271 15.7836 0 0.0 1 0
24 1 58.71 17.6196 1.76888 1.72093 24 -0.978097 1 0
2435 1 58.71 29.9247 17.5306 8.72345 2435 0.403969 1 0
999 1 58.71 33.4721 14.1118 15.7894 999 0.3649 1 0
995 1 58.71 29.9305 14.022 15.8292 995 1.16725 1 0
28 1 58.71 21.084 1.69277 1.80916 28 -0.941326 1 0
30 1 58.71 26.4571 1.71348 0.0622266 30 -0.841974 1 0
2617 1 58.71 14.1689 17.5427 10.5938 0 0.0 1 0
70 1 58.71 26.3674 5.32238 0.0818588 70 -0.171421 1 0
27 1 58.71 22.7943 0.0611749 1.82499 27 0.164433 1 0
960 1 58.71 31.6992 12.3186 15.8607 960 0.343419 1 0
32 1 58.71 24.6656 1.70462 1.75531 32 -0.351779 1 0
956 1 58.71 28.1375 12.4032 15.8492 956 -0.0273647 1 0
36 1 58.71 28.129 1.77073 1.729 36 0.511042 1 0
221 1 58.71 17.5309 0.0423839 3.54496 221 0.581756 1 0
2831 1 58.71 26.4567 17.5844 15.8819 2831 -0.0639701 1 0
2811 1 58.71 8.83944 17.52 15.8764 0 0.0 1 0
40 1 58.71 31.677 1.64887 1.78328 40 0.145551 1 0
2405 1 58.71 3.64266 17.5043 7.01906 0 0.0 1 0
2621 1 58.71 17.5853 17.5874 10.5407 2621 0.553886 1 0
2619 1 58.71 15.923 17.501 12.3254 0 0.0 1 0
65 1 58.71 21.0281 3.39427 0.0129669 65 0.120828 1 0
43 1 58.71 1.76649 3.48033 1.7668 0 0.0 1 0
44 1 58.71 0.0855141 5.18617 1.77385 0 0.0 1 0
26 1 58.71 22.8329 1.6666 0.0498451 26 -0.124273 1 0
2639 1 58.71 33.4046 17.4776 12.2727 2639 0.849517 1 0
47 1 58.71 5.33316 3.63044 1.71209 0 0.0 1 0
48 1 58.71 3.5092 5.3015 1.78424 0 0.0 1 0
98 1 58.71 15.8219 8.82013 0.136485 0 0.0 1 0
52 1 58.71 7.01661 5.28327 1.75031 0 0.0 1 0
78 1 58.71 33.4769 5.14725 0.044177 78 -0.00196434 1 0
51 1 58.71 8.71037 3.53211 1.80596 0 0.0 1 0
2601 1 58.71 0.00537708 17.5348 10.4797 0 0.0 1 0
56 1 58.71 10.508 5.37634 1.72615 0 0.0 1 0
42 1 58.71 1.74533 5.25104 0.00740054 0 0.0 1 0
55 1 58.71 12.3113 3.55804 1.70082 0 0.0 1 0
2421 1 58.71 17.6689 17.5509 7.02787 2421 -0.122506 1 0
3 1 58.71 1.78308 0.00443822 1.68967 0 0.0 1 0
59 1 58.71 15.8369 3.46533 1.73964 0 0.0 1 0
60 1 58.71 14.1446 5.19836 1.65996 0 0.0 1 0
45 1 58.71 3.57733 3.4519 0.032021 0 0.0 1 0
64 1 58.71 17.5557 5.28484 1.68567 64 -0.278462 1 0
11 1 58.71 8.72578 0.110673 1.78565 0 0.0 1 0
63 1 58.71 19.3411 3.51442 1.79337 63 -0.332539 1 0
1154 1 58.71 29.9267 12.3414 17.5826 1154 0.432893 1 0
68 1 58.71 21.0667 5.27322 1.71302 68 0.413755 1 0
82 1 58.71 1.72252 8.75837 0.0444659 0 0.0 1 0
67 1 58.71 22.7614 3.38665 1.74804 67 0.76902 1 0
22 1 58.71 19.2733 1.76183 0.128008 22 0.387297 1 0
137 1 58.71 14.0499 10.5313 0.0602636 0 0.0 1 0
71 1 58.71 26.3848 3.51937 1.69192 71 -0.209044 1 0
72 1 58.71 24.5867 5.2371 1.811 72 -0.0773677 1 0
2627 1 58.71 22.8185 17.5502 12.2572 2627 0.642276 1 0
76 1 58.71 28.2249 5.2913 1.79562 76 -0.367358 1 0
85 1 58.71 3.47813 7.04869 0.00906474 0 0.0 1 0
75 1 58.71 30.0529 3.46039 1.72455 75 -1.09851 1 0
9 1 58.71 7.01286 0.00614707 0.0457425 0 0.0 1 0
80 1 58.71 31.6475 5.29237 1.73792 80 0.252432 1 0
205 1 58.71 3.58792 0.0177448 3.49773 0 0.0 1 0
79 1 58.71 33.4149 3.42527 1.74463 79 -0.160991 1 0
1177 1 58.71 14.1598 14.1655 17.561 0 0.0 1 0
83 1 58.71 1.78249 7.05158 1.85446 0 0.0 1 0
407 1 58.71 5.23802 0.0222569 8.83421 0 0.0 1 0
87 1 58.71 5.25098 7.0441 1.77564 0 0.0 1 0
153 1 58.71 28.1682 10.5629 0.0640136 153 -0.00721531 1 0
91 1 58.71 8.7441 7.00117 1.77219 0 0.0 1 0
2437 1 58.71 31.7133 17.5895 6.98335 2437 -0.24844 1 0
95 1 58.71 12.2875 7.0737 1.84096 0 0.0 1 0
207 1 58.71 5.35294 0.0414556 5.23377 0 0.0 1 0
99 1 58.71 15.8378 7.08169 1.74361 0 0.0 1 0
2803 1 58.71 1.83902 17.5606 15.8062 0 0.0 1 0
103 1 58.71 19.3393 6.95926 1.67099 103 -0.156976 1 0
211 1 58.71 8.8061 0.0273568 5.40663 0 0.0 1 0
107 1 58.71 22.8488 7.06027 1.80761 107 0.113995 1 0
213 1 58.71 10.5684 0.0175688 3.58968 0 0.0 1 0
111 1 58.71 26.4277 7.05159 1.83139 111 -0.667715 1 0
133 1 58.71 10.5922 10.5716 0.0758056 0 0.0 1 0
115 1 58.71 29.9405 7.07135 1.74929 115 -0.438972 1 0
89 1 58.71 7.01483 7.0062 0.023618 0 0.0 1 0
119 1 58.71 33.3911 6.99713 1.78975 119 0.0725929 1 0
1134 1 58.71 12.3983 12.4569 17.5026 0 0.0 1 0
84 1 58.71 35.189 8.80997 1.77686 0 0.0 1 0
837 1 58.71 31.7156 0.0909618 14.0847 837 0.103325 1 0
123 1 58.71 1.80602 10.5258 1.7606 0 0.0 1 0
821 1 58.71 17.5928 0.0395021 14.0517 821 0.00968105 1 0
88 1 58.71 3.53401 8.78276 1.64883 0 0.0 1 0
2221 1 58.71 17.6971 17.5362 3.51784 2221 -0.751378 1 0
127 1 58.71 5.23037 10.5137 1.75324 0 0.0 1 0
92 1 58.71 7.07397 8.79765 1.70025 0 0.0 1 0
2833 1 58.71 28.2746 17.5509 14.0897 2833 -0.0836533 1 0
178 1 58.71 15.8245 15.8462 0.061327 0 0.0 1 0
96 1 58.71 10.5676 8.76776 1.75773 0 0.0 1 0
131 1 58.71 8.89545 10.5988 1.74676 0 0.0 1 0
53 1 58.71 10.5393 3.56817 0.0625004 0 0.0 1 0
803 1 58.71 1.78627 0.0403412 15.8863 0 0.0 1 0
135 1 58.71 12.254 10.4997 1.78856 0 0.0 1 0
113 1 58.71 28.0956 7.06209 0.0149204 113 0.543119 1 0
100 1 58.71 14.1348 8.81648 1.83589 0 0.0 1 0
2239 1 58.71 33.4378 17.515 5.24744 2239 0.332025 1 0
139 1 58.71 15.873 10.4891 1.78483 0 0.0 1 0
104 1 58.71 17.6574 8.72803 1.75907 104 -0.109123 1 0
81 1 58.71 0.0308416 7.01254 0.100882 0 0.0 1 0
2407 1 58.71 5.31299 17.531 8.84098 0 0.0 1 0
108 1 58.71 21.1185 8.77702 1.75372 108 -0.0892042 1 0
143 1 58.71 19.3361 10.6456 1.78818 143 -0.250218 1 0
2401 1 58.71 35.1894 17.515 6.9389 0 0.0 1 0
14 1 58.71 12.2807 1.66452 0.0168623 0 0.0 1 0
147 1 58.71 22.8173 10.6277 1.76163 147 0.30772 1 0
215 1 58.71 12.3809 0.0808864 5.2946 0 0.0 1 0
112 1 58.71 24.6446 8.84024 1.66523 112 -0.406144 1 0
109 1 58.71 24.6541 7.03821 0.0339864 109 -0.518748 1 0
151 1 58.71 26.4054 10.4868 1.75067 151 -0.112186 1 0
116 1 58.71 28.1047 8.81307 1.79696 116 0.673889 1 0
118 1 58.71 33.5019 8.77491 0.0272537 118 -0.552327 1 0
607 1 58.71 5.21706 0.0211165 12.3515 0 0.0 1 0
120 1 58.71 31.6108 8.7673 1.63693 120 0.817184 1 0
155 1 58.71 29.9417 10.5642 1.73716 155 -0.243328 1 0
1161 1 58.71 0.0781298 14.0999 17.5353 0 0.0 1 0
49 1 58.71 7.04853 3.52893 0.0847232 0 0.0 1 0
159 1 58.71 33.387 10.6575 1.67622 159 0.625374 1 0
90 1 58.71 8.7927 8.88578 0.022254 0 0.0 1 0
124 1 58.71 0.059946 12.2913 1.78609 0 0.0 1 0
1178 1 58.71 15.8587 15.8813 17.5119 0 0.0 1 0
163 1 58.71 1.74249 14.1506 1.71051 0 0.0 1 0
1138 1 58.71 15.9187 12.3295 17.5401 0 0.0 1 0
128 1 58.71 3.54456 12.2688 1.66982 0 0.0 1 0
7 1 58.71 5.2974 0.0954407 1.7047 0 0.0 1 0
167 1 58.71 5.35625 14.0385 1.70459 0 0.0 1 0
132 1 58.71 7.05607 12.3345 1.7491 0 0.0 1 0
1174 1 58.71 12.3675 15.7759 17.5942 0 0.0 1 0
2829 1 58.71 24.6631 17.498 14.0668 2829 -0.167523 1 0
136 1 58.71 10.5932 12.3289 1.75662 0 0.0 1 0
171 1 58.71 8.83332 14.0564 1.74588 0 0.0 1 0
2409 1 58.71 7.03131 17.546 7.01776 0 0.0 1 0
1165 1 58.71 3.55626 14.1454 17.5108 0 0.0 1 0
175 1 58.71 12.4382 14.106 1.69064 0 0.0 1 0
2835 1 58.71 29.9989 17.5791 15.8781 2835 -0.0412596 1 0
140 1 58.71 14.1737 12.3288 1.81683 0 0.0 1 0
1114 1 58.71 29.8738 8.80496 17.5779 1114 0.678982 1 0
179 1 58.71 15.8411 14.0382 1.793 0 0.0 1 0
144 1 58.71 17.4974 12.3341 1.75702 144 0.555812 1 0
1146 1 58.71 22.9777 12.3904 17.5245 1146 -0.499351 1 0
2237 1 58.71 31.6583 17.5737 3.48338 2237 0.00100636 1 0
148 1 58.71 21.0544 12.3751 1.69286 148 0.624266 1 0
183 1 58.71 19.3608 14.0598 1.65948 183 -0.296162 1 0
2203 1 58.71 1.85733 17.4983 5.23009 0 0.0 1 0
1198 1 58.71 33.5075 15.8442 17.5247 1198 -0.123871 1 0
187 1 58.71 22.8489 14.1258 1.76175 187 0.201337 1 0
417 1 58.71 14.115 0.0164558 7.09439 0 0.0 1 0
152 1 58.71 24.6418 12.2979 1.65216 152 0.194464 1 0
2201 1 58.71 35.1812 17.4999 3.42511 0 0.0 1 0
191 1 58.71 26.3693 14.0245 1.8697 191 -0.448991 1 0
156 1 58.71 28.1544 12.3706 1.81634 156 0.100554 1 0
1069 1 58.71 24.6325 3.43607 17.5941 1069 1.07727 1 0
181 1 58.71 17.5332 14.0654 0.00699961 181 0.212635 1 0
160 1 58.71 31.6961 12.3283 1.77063 160 -0.391746 1 0
195 1 58.71 29.9291 14.0978 1.73979 195 -0.285199 1 0
1197 1 58.71 31.7295 14.0925 17.5522 1197 -0.247806 1 0
94 1 58.71 12.3551 8.77274 0.0531953 0 0.0 1 0
199 1 58.71 33.4013 14.0776 1.71035 199 0.621486 1 0
2603 1 58.71 1.86901 17.5792 12.3059 0 0.0 1 0
164 1 58.71 0.0411491 15.7396 1.6947 0 0.0 1 0
631 1 58.71 26.4799 0.0296829 12.3644 631 -0.360412 1 0
168 1 58.71 3.58863 15.776 1.70021 0 0.0 1 0
172 1 58.71 7.05849 15.8571 1.65827 0 0.0 1 0
825 1 58.71 21.0978 0.00392123 14.0467 825 -0.017744 1 0
176 1 58.71 10.5786 15.7991 1.64801 0 0.0 1 0
2207 1 58.71 5.35588 17.5857 5.23461 0 0.0 1 0
1085 1 58.71 3.48422 7.04695 17.5049 0 0.0 1 0
180 1 58.71 14.0646 15.8657 1.81396 0 0.0 1 0
184 1 58.71 17.6158 15.9269 1.79058 184 -0.554801 1 0
2631 1 58.71 26.503 17.4439 12.3096 2631 -0.329091 1 0
188 1 58.71 21.1556 15.8647 1.68279 188 -0.740013 1 0
1070 1 58.71 26.484 5.25332 17.5956 1070 -0.877959 1 0
2035 1 58.71 29.8984 17.5154 1.77373 2035 -0.25992 1 0
192 1 58.71 24.6114 15.8699 1.74973 192 0.0741715 1 0
196 1 58.71 28.0602 15.8309 1.78633 196 0.885253 1 0
189 1 58.71 24.606 14.0737 0.00151836 189 0.471377 1 0
200 1 58.71 31.6651 15.8072 1.82797 200 -0.185715 1 0
895 1 58.71 12.3244 7.08143 15.8153 0 0.0 1 0
991 1 58.71 26.4827 14.2232 15.9379 991 -0.188048 1 0
202 1 58.71 1.80359 1.67631 3.50932 0 0.0 1 0
97 1 58.71 14.1006 7.03562 0.0337258 0 0.0 1 0
204 1 58.71 0.00215664 1.73774 5.27999 0 0.0 1 0
952 1 58.71 24.6631 12.4168 15.8613 952 0.329129 1 0
206 1 58.71 5.322 1.76149 3.57876 0 0.0 1 0
987 1 58.71 22.8649 14.1338 15.8495 987 0.107997 1 0
208 1 58.71 3.54017 1.77654 5.29991 0 0.0 1 0
983 1 58.71 19.3873 14.0766 15.8035 983 -0.0497171 1 0
212 1 58.71 7.07526 1.70013 5.36576 0 0.0 1 0
210 1 58.71 8.78652 1.72337 3.53715 0 0.0 1 0
948 1 58.71 21.1491 12.3185 15.8487 948 0.114313 1 0
1010 1 58.71 8.78314 1.90421 17.5505 0 0.0 1 0
216 1 58.71 10.5838 1.69347 5.39187 0 0.0 1 0
214 1 58.71 12.3065 1.81771 3.52665 0 0.0 1 0
944 1 58.71 17.6693 12.3385 15.7867 944 0.166953 1 0
1073 1 58.71 28.2065 3.59919 17.5415 1073 0.231213 1 0
218 1 58.71 15.8389 1.7403 3.58503 0 0.0 1 0
154 1 58.71 29.9652 12.3412 0.0267954 154 -0.386926 1 0
220 1 58.71 14.0575 1.68191 5.29938 0 0.0 1 0
979 1 58.71 15.9082 14.0675 15.7722 0 0.0 1 0
224 1 58.71 17.559 1.71731 5.36776 224 0.32831 1 0
222 1 58.71 19.273 1.70525 3.53613 222 0.305356 1 0
940 1 58.71 14.2159 12.3222 15.7578 0 0.0 1 0
1013 1 58.71 10.5208 0.0421425 17.5695 0 0.0 1 0
228 1 58.71 21.064 1.68406 5.3003 228 -0.0640803 1 0
226 1 58.71 22.798 1.77874 3.53329 226 0.378976 1 0
975 1 58.71 12.3588 14.105 15.7586 0 0.0 1 0
2625 1 58.71 21.1226 17.5841 10.5814 2625 -0.243447 1 0
230 1 58.71 26.3755 1.81259 3.57077 230 0.154533 1 0
1029 1 58.71 24.6911 0.0076221 17.5251 1029 -0.410845 1 0
232 1 58.71 24.5855 1.78094 5.30023 232 0.0657238 1 0
1121 1 58.71 35.1038 10.5601 17.5786 0 0.0 1 0
236 1 58.71 28.1694 1.70154 5.31063 236 -0.568946 1 0
234 1 58.71 29.98 1.80159 3.53227 234 -0.737193 1 0
971 1 58.71 8.81213 14.0489 15.8721 0 0.0 1 0
1065 1 58.71 21.1433 3.51809 17.5941 1065 -0.114086 1 0
240 1 58.71 31.6974 1.69393 5.28637 240 -0.38735 1 0
238 1 58.71 33.4304 1.78247 3.57543 238 0.173786 1 0
936 1 58.71 10.5472 12.3091 15.8429 0 0.0 1 0
241 1 58.71 35.1564 3.50475 3.50406 0 0.0 1 0
242 1 58.71 1.80398 5.22629 3.54777 0 0.0 1 0
243 1 58.71 1.66952 3.52222 5.25048 0 0.0 1 0
244 1 58.71 35.1097 5.23765 5.32707 0 0.0 1 0
245 1 58.71 3.4992 3.51723 3.53654 0 0.0 1 0
246 1 58.71 5.28526 5.27407 3.52211 0 0.0 1 0
247 1 58.71 5.28773 3.45988 5.36954 0 0.0 1 0
248 1 58.71 3.54275 5.24452 5.31201 0 0.0 1 0
249 1 58.71 7.06224 3.49311 3.47383 0 0.0 1 0
252 1 58.71 7.0509 5.27749 5.30578 0 0.0 1 0
250 1 58.71 8.76619 5.2409 3.58588 0 0.0 1 0
251 1 58.71 8.87415 3.38314 5.28156 0 0.0 1 0
253 1 58.71 10.4906 3.55035 3.4506 0 0.0 1 0
256 1 58.71 10.5675 5.23426 5.24807 0 0.0 1 0
254 1 58.71 12.2662 5.27496 3.54118 0 0.0 1 0
255 1 58.71 12.2782 3.49675 5.3514 0 0.0 1 0
257 1 58.71 14.0844 3.52402 3.47358 0 0.0 1 0
258 1 58.71 15.8171 5.22698 3.47464 0 0.0 1 0
259 1 58.71 15.824 3.47276 5.27083 0 0.0 1 0
260 1 58.71 14.0444 5.18994 5.25037 0 0.0 1 0
261 1 58.71 17.4624 3.49799 3.54821 261 1.24887 1 0
264 1 58.71 17.5922 5.28137 5.21217 264 -0.211373 1 0
262 1 58.71 19.2774 5.27306 3.46403 262 0.121496 1 0
263 1 58.71 19.3085 3.45746 5.22307 263 -0.203738 1 0
265 1 58.71 21.0296 3.55485 3.55075 265 0.460521 1 0
268 1 58.71 21.0244 5.27443 5.33127 268 0.449898 1 0
266 1 58.71 22.9034 5.21624 3.56807 266 -0.740841 1 0
267 1 58.71 22.7976 3.46398 5.32801 267 0.241149 1 0
269 1 58.71 24.6402 3.53322 3.55727 269 -0.266486 1 0
270 1 58.71 26.4342 5.25521 3.53359 270 -0.23693 1 0
271 1 58.71 26.4208 3.5006 5.2586 271 0.157682 1 0
272 1 58.71 24.6745 5.28938 5.26196 272 -0.25898 1 0
273 1 58.71 28.1967 3.48676 3.51798 273 -0.252382 1 0
276 1 58.71 28.102 5.28993 5.26746 276 0.750922 1 0
274 1 58.71 29.9125 5.30465 3.49316 274 -0.114217 1 0
275 1 58.71 29.8381 3.47538 5.25826 275 0.548607 1 0
277 1 58.71 31.629 3.53065 3.52788 277 0.441802 1 0
280 1 58.71 31.6762 5.24331 5.3262 280 -0.429163 1 0
278 1 58.71 33.3722 5.1947 3.49335 278 0.422078 1 0
279 1 58.71 33.3904 3.50965 5.30334 279 -0.0234774 1 0
281 1 58.71 35.1841 7.00274 3.47761 0 0.0 1 0
283 1 58.71 1.7322 6.9896 5.22949 0 0.0 1 0
285 1 58.71 3.52855 7.091 3.51748 0 0.0 1 0
287 1 58.71 5.30809 7.03233 5.23797 0 0.0 1 0
289 1 58.71 7.06722 6.9812 3.51483 0 0.0 1 0
291 1 58.71 8.77425 7.07615 5.23942 0 0.0 1 0
293 1 58.71 10.4885 6.93194 3.60389 0 0.0 1 0
295 1 58.71 12.2992 6.91957 5.23969 0 0.0 1 0
297 1 58.71 14.0978 7.02026 3.45875 0 0.0 1 0
299 1 58.71 15.7795 6.94802 5.21467 0 0.0 1 0
301 1 58.71 17.5879 7.02252 3.48405 301 -0.101898 1 0
303 1 58.71 19.3307 6.97974 5.19912 303 0.433561 1 0
305 1 58.71 21.1102 6.90052 3.48967 305 0.121937 1 0
307 1 58.71 22.9208 7.01143 5.29161 307 -0.35417 1 0
309 1 58.71 24.5797 7.02011 3.50507 309 0.660622 1 0
311 1 58.71 26.3839 6.99492 5.2279 311 -0.197627 1 0
313 1 58.71 28.1231 7.12427 3.51919 313 0.160943 1 0
315 1 58.71 29.7898 7.10586 5.2041 315 0.512125 1 0
317 1 58.71 31.6283 7.00834 3.59949 317 0.232958 1 0
319 1 58.71 33.4077 7.01569 5.27214 319 0.871435 1 0
282 1 58.71 1.8072 8.80624 3.49932 0 0.0 1 0
284 1 58.71 0.0273281 8.78378 5.19468 0 0.0 1 0
321 1 58.71 35.1734 10.5782 3.53144 0 0.0 1 0
323 1 58.71 1.72239 10.6153 5.23611 0 0.0 1 0
286 1 58.71 5.33055 8.80408 3.4851 0 0.0 1 0
288 1 58.71 3.43642 8.83085 5.15584 0 0.0 1 0
325 1 58.71 3.50027 10.6013 3.49449 0 0.0 1 0
327 1 58.71 5.28013 10.5726 5.20998 0 0.0 1 0
292 1 58.71 7.03184 8.8477 5.27401 0 0.0 1 0
329 1 58.71 7.11234 10.6081 3.48792 0 0.0 1 0
290 1 58.71 8.83209 8.72516 3.53048 0 0.0 1 0
296 1 58.71 10.5391 8.80549 5.28712 0 0.0 1 0
331 1 58.71 8.89887 10.6191 5.29336 0 0.0 1 0
333 1 58.71 10.6139 10.5777 3.50174 0 0.0 1 0
294 1 58.71 12.2223 8.83046 3.53948 0 0.0 1 0
335 1 58.71 12.2851 10.5542 5.24208 0 0.0 1 0
298 1 58.71 15.8627 8.79019 3.51533 0 0.0 1 0
300 1 58.71 14.0713 8.72552 5.23167 0 0.0 1 0
337 1 58.71 13.9754 10.5476 3.50836 0 0.0 1 0
339 1 58.71 15.8517 10.4782 5.26133 0 0.0 1 0
304 1 58.71 17.6793 8.77386 5.22646 304 -0.524263 1 0
341 1 58.71 17.6057 10.5227 3.52565 341 -0.10184 1 0
302 1 58.71 19.4295 8.79348 3.4126 302 -0.49356 1 0
308 1 58.71 21.1136 8.78999 5.12457 308 0.27766 1 0
343 1 58.71 19.3467 10.6026 5.18276 343 0.22404 1 0
345 1 58.71 21.1177 10.6625 3.47064 345 -0.0707579 1 0
306 1 58.71 22.9872 8.8108 3.44312 306 -1.32305 1 0
347 1 58.71 22.85 10.5428 5.22461 347 0.0441565 1 0
310 1 58.71 26.3104 8.79158 3.51188 310 0.173217 1 0
312 1 58.71 24.6261 8.7854 5.2361 312 -0.0727557 1 0
349 1 58.71 24.5711 10.5604 3.4302 349 0.563769 1 0
351 1 58.71 26.3185 10.5299 5.18685 351 0.662062 1 0
316 1 58.71 28.0605 8.83487 5.31112 316 0.352915 1 0
353 1 58.71 28.1459 10.5375 3.49582 353 0.0951384 1 0
314 1 58.71 29.922 8.79134 3.44965 314 -0.139574 1 0
320 1 58.71 31.6408 8.70948 5.26196 320 0.300407 1 0
355 1 58.71 29.9713 10.5252 5.23781 355 -0.601809 1 0
357 1 58.71 31.668 10.4982 3.48798 357 0.409033 1 0
318 1 58.71 33.367 8.7474 3.49924 318 0.333866 1 0
359 1 58.71 33.4819 10.4872 5.22115 359 -0.617131 1 0
322 1 58.71 1.81707 12.3891 3.48541 0 0.0 1 0
324 1 58.71 0.00651208 12.3339 5.14208 0 0.0 1 0
361 1 58.71 0.0347453 14.0383 3.45977 0 0.0 1 0
363 1 58.71 1.889 14.166 5.19109 0 0.0 1 0
326 1 58.71 5.31594 12.3624 3.50168 0 0.0 1 0
328 1 58.71 3.54022 12.3571 5.23713 0 0.0 1 0
365 1 58.71 3.58672 14.1259 3.41143 0 0.0 1 0
367 1 58.71 5.32233 14.1377 5.19126 0 0.0 1 0
332 1 58.71 7.13291 12.3221 5.16583 0 0.0 1 0
369 1 58.71 7.00387 14.1323 3.51994 0 0.0 1 0
330 1 58.71 8.92323 12.3129 3.53589 0 0.0 1 0
336 1 58.71 10.6494 12.379 5.30456 0 0.0 1 0
371 1 58.71 8.83887 14.0916 5.1642 0 0.0 1 0
373 1 58.71 10.5462 14.1938 3.46228 0 0.0 1 0
334 1 58.71 12.3453 12.298 3.45975 0 0.0 1 0
375 1 58.71 12.308 14.2104 5.26933 0 0.0 1 0
338 1 58.71 15.7748 12.2908 3.63179 0 0.0 1 0
340 1 58.71 14.0427 12.3558 5.28568 0 0.0 1 0
377 1 58.71 14.06 14.07 3.49606 0 0.0 1 0
379 1 58.71 15.8357 14.1071 5.31102 0 0.0 1 0
344 1 58.71 17.5071 12.3603 5.2858 344 1.00445 1 0
381 1 58.71 17.5799 14.0986 3.53876 381 -0.445824 1 0
342 1 58.71 19.2935 12.3892 3.50124 342 0.181375 1 0
348 1 58.71 21.1187 12.3301 5.23661 348 -0.191695 1 0
383 1 58.71 19.3315 14.0539 5.34298 383 -0.129003 1 0
385 1 58.71 21.156 14.0635 3.54311 385 -1.07707 1 0
346 1 58.71 22.886 12.3568 3.56842 346 0.261546 1 0
387 1 58.71 22.8353 14.148 5.29771 387 0.0169462 1 0
350 1 58.71 26.3303 12.3476 3.63257 350 0.113311 1 0
352 1 58.71 24.6592 12.2335 5.25588 352 -1.15942 1 0
389 1 58.71 24.5634 14.1737 3.53847 389 0.536509 1 0
391 1 58.71 26.358 14.0697 5.21373 391 -0.311418 1 0
356 1 58.71 28.1298 12.2147 5.243 356 0.536265 1 0
393 1 58.71 28.0874 14.0413 3.52071 393 1.01995 1 0
354 1 58.71 29.985 12.3045 3.544 354 -0.766546 1 0
360 1 58.71 31.6543 12.2838 5.22163 360 1.47022 1 0
395 1 58.71 30.0727 13.9666 5.34005 395 -1.41186 1 0
397 1 58.71 31.7294 14.1091 3.49884 397 -0.0631682 1 0
358 1 58.71 33.5305 12.2309 3.42642 358 -1.4247 1 0
399 1 58.71 33.4435 13.9982 5.24217 399 0.550817 1 0
362 1 58.71 1.76409 15.8441 3.49949 0 0.0 1 0
364 1 58.71 0.0720145 15.7745 5.21603 0 0.0 1 0
366 1 58.71 5.35042 15.8314 3.43351 0 0.0 1 0
368 1 58.71 3.60605 15.8064 5.29184 0 0.0 1 0
372 1 58.71 7.15078 15.8738 5.23571 0 0.0 1 0
370 1 58.71 8.74111 15.8691 3.36458 0 0.0 1 0
376 1 58.71 10.4744 15.906 5.17207 0 0.0 1 0
374 1 58.71 12.287 15.9227 3.4531 0 0.0 1 0
378 1 58.71 15.8012 15.9253 3.58464 0 0.0 1 0
380 1 58.71 14.0081 15.8046 5.35979 0 0.0 1 0
384 1 58.71 17.6307 15.8923 5.30573 384 -0.194295 1 0
382 1 58.71 19.3114 15.7389 3.55513 382 1.0909 1 0
388 1 58.71 21.0946 15.8835 5.28607 388 -0.236798 1 0
386 1 58.71 22.8025 15.743 3.54651 386 0.204823 1 0
390 1 58.71 26.379 15.9149 3.48758 390 -0.544343 1 0
392 1 58.71 24.5525 15.8443 5.30004 392 0.824522 1 0
396 1 58.71 28.0704 15.7604 5.21291 396 0.554762 1 0
394 1 58.71 29.9141 15.7238 3.66868 394 -0.114524 1 0
400 1 58.71 31.8067 15.7787 5.26466 400 -0.738655 1 0
398 1 58.71 33.4787 15.7969 3.45448 398 0.119755 1 0
932 1 58.71 6.96269 12.2534 15.9125 0 0.0 1 0
402 1 58.71 1.73299 1.64993 7.02789 0 0.0 1 0
1125 1 58.71 3.39432 10.5513 17.4486 0 0.0 1 0
406 1 58.71 5.25171 1.71225 7.00349 0 0.0 1 0
1105 1 58.71 21.3081 6.98636 17.5621 1105 -0.799024 1 0
410 1 58.71 8.8062 1.72886 7.16002 0 0.0 1 0
967 1 58.71 5.35913 14.1536 15.9026 0 0.0 1 0
414 1 58.71 12.2978 1.72436 7.09317 0 0.0 1 0
928 1 58.71 3.49019 12.4045 15.7361 0 0.0 1 0
418 1 58.71 15.8549 1.72444 7.20231 0 0.0 1 0
963 1 58.71 1.85907 14.1648 15.7621 0 0.0 1 0
422 1 58.71 19.355 1.79972 7.16944 422 -0.469173 1 0
924 1 58.71 0.0237121 12.4355 15.8228 0 0.0 1 0
426 1 58.71 22.8207 1.73134 7.09399 426 0.168719 1 0
2429 1 58.71 24.6619 17.5931 6.9859 2429 -0.156683 1 0
430 1 58.71 26.3942 1.63552 7.02771 430 0.00970122 1 0
959 1 58.71 33.4594 10.6141 15.8576 959 -0.028699 1 0
434 1 58.71 29.8058 1.6284 7.07823 434 0.745773 1 0
1 1 58.71 35.1767 0.0160193 0.0506435 0 0.0 1 0
438 1 58.71 33.4447 1.81824 6.98938 438 -0.0768935 1 0
441 1 58.71 -0.000281337 3.47401 6.98627 0 0.0 1 0
442 1 58.71 1.76681 5.3291 7.04062 0 0.0 1 0
445 1 58.71 3.43909 3.51528 7.13041 0 0.0 1 0
446 1 58.71 5.24511 5.26981 7.08614 0 0.0 1 0
449 1 58.71 7.13173 3.45891 7.00314 0 0.0 1 0
450 1 58.71 8.81785 5.19519 6.94913 0 0.0 1 0
453 1 58.71 10.5852 3.51821 7.11777 0 0.0 1 0
454 1 58.71 12.3499 5.30064 7.06254 0 0.0 1 0
457 1 58.71 13.9711 3.45335 7.13838 0 0.0 1 0
458 1 58.71 15.744 5.28088 7.10338 0 0.0 1 0
461 1 58.71 17.4982 3.57006 7.09405 461 0.998658 1 0
462 1 58.71 19.3868 5.25766 7.16106 462 -0.646839 1 0
465 1 58.71 21.107 3.462 7.08321 465 -0.117338 1 0
466 1 58.71 22.8483 5.29065 7.03604 466 0.478433 1 0
469 1 58.71 24.6471 3.43242 7.0263 469 0.0528611 1 0
470 1 58.71 26.4411 5.20181 7.04446 470 -0.421644 1 0
473 1 58.71 28.264 3.56322 7.11014 473 -0.928996 1 0
474 1 58.71 29.9664 5.38164 6.97117 474 -0.762034 1 0
477 1 58.71 31.5205 3.47895 7.02955 477 0.540367 1 0
478 1 58.71 33.3765 5.25579 7.0227 478 0.137556 1 0
481 1 58.71 35.1937 7.02018 6.99111 0 0.0 1 0
485 1 58.71 3.53031 7.03687 6.98586 0 0.0 1 0
489 1 58.71 7.01719 7.05534 7.06096 0 0.0 1 0
493 1 58.71 10.5983 6.9436 6.94682 0 0.0 1 0
497 1 58.71 14.0393 6.95816 7.03488 0 0.0 1 0
501 1 58.71 17.561 7.01988 6.92973 501 0.0883175 1 0
505 1 58.71 21.2202 7.08604 7.02246 505 -1.27382 1 0
509 1 58.71 24.6823 6.98981 7.09275 509 0.0636233 1 0
513 1 58.71 28.0844 7.03985 7.04745 513 0.289422 1 0
517 1 58.71 31.7948 7.05327 6.95161 517 -1.58282 1 0
482 1 58.71 1.7466 8.87096 7.00589 0 0.0 1 0
521 1 58.71 35.1931 10.5632 6.96276 0 0.0 1 0
486 1 58.71 5.33337 8.88953 6.99218 0 0.0 1 0
525 1 58.71 3.51996 10.5814 7.0247 0 0.0 1 0
529 1 58.71 7.15 10.6078 6.94918 0 0.0 1 0
490 1 58.71 8.7703 8.81188 7.06545 0 0.0 1 0
533 1 58.71 10.5413 10.591 7.06326 0 0.0 1 0
494 1 58.71 12.2847 8.75176 6.94932 0 0.0 1 0
498 1 58.71 15.8336 8.82717 7.04785 0 0.0 1 0
537 1 58.71 14.0571 10.5621 7.07423 0 0.0 1 0
541 1 58.71 17.6492 10.5554 6.98602 541 -0.177628 1 0
502 1 58.71 19.4244 8.76315 6.93506 502 -0.426171 1 0
545 1 58.71 21.0738 10.4949 7.0144 545 0.643131 1 0
506 1 58.71 22.8572 8.77173 6.98365 506 0.476352 1 0
510 1 58.71 26.3676 8.78249 7.03804 510 0.0796809 1 0
549 1 58.71 24.6839 10.4616 6.94121 549 -0.905859 1 0
553 1 58.71 28.1534 10.4892 7.01273 553 0.0884669 1 0
514 1 58.71 29.9256 8.76106 6.9236 514 -0.0512481 1 0
557 1 58.71 31.7446 10.5145 6.95676 557 -0.158574 1 0
518 1 58.71 33.453 8.77763 6.94682 518 0.669131 1 0
522 1 58.71 1.77356 12.3291 6.95646 0 0.0 1 0
561 1 58.71 0.0916972 13.9893 6.94222 0 0.0 1 0
526 1 58.71 5.37944 12.3171 6.90517 0 0.0 1 0
565 1 58.71 3.5432 14.0847 7.01533 0 0.0 1 0
569 1 58.71 7.10679 14.1431 6.98206 0 0.0 1 0
530 1 58.71 8.90438 12.4127 7.01686 0 0.0 1 0
573 1 58.71 10.5878 14.1386 6.93341 0 0.0 1 0
534 1 58.71 12.2792 12.3117 7.08119 0 0.0 1 0
538 1 58.71 15.865 12.3262 6.98107 0 0.0 1 0
577 1 58.71 14.1062 14.0815 7.08419 0 0.0 1 0
581 1 58.71 17.6029 14.0636 7.1711 581 0.0517685 1 0
542 1 58.71 19.3925 12.292 6.98443 542 -0.600801 1 0
585 1 58.71 21.0796 14.12 7.01744 585 0.551523 1 0
546 1 58.71 22.8261 12.2894 6.9737 546 0.450638 1 0
550 1 58.71 26.3449 12.3579 6.96517 550 0.575866 1 0
589 1 58.71 24.591 14.0327 6.95147 589 0.256008 1 0
593 1 58.71 28.161 14.0471 6.9261 593 -0.165655 1 0
554 1 58.71 29.9645 12.3058 7.07369 554 -0.219115 1 0
597 1 58.71 31.8027 13.9585 6.97672 597 -0.130243 1 0
558 1 58.71 33.4995 12.279 7.05115 558 -0.15818 1 0
562 1 58.71 1.78888 15.8085 6.95586 0 0.0 1 0
566 1 58.71 5.31957 15.7538 7.01382 0 0.0 1 0
570 1 58.71 8.84193 15.894 7.08521 0 0.0 1 0
574 1 58.71 12.2975 15.8798 7.11182 0 0.0 1 0
578 1 58.71 15.9174 15.7898 7.1676 0 0.0 1 0
582 1 58.71 19.4073 15.8266 7.01353 582 -0.201659 1 0
586 1 58.71 22.8427 15.9491 6.97984 586 0.355372 1 0
590 1 58.71 26.3851 15.8155 7.06932 590 -0.0425739 1 0
594 1 58.71 29.936 15.6912 6.93595 594 0.190208 1 0
598 1 58.71 33.5842 15.7628 6.99164 598 -0.857415 1 0
955 1 58.71 29.9429 10.6022 15.8526 955 0.0374908 1 0
404 1 58.71 0.0522892 1.73753 8.80778 0 0.0 1 0
920 1 58.71 31.7727 8.90515 15.8762 920 -0.427004 1 0
602 1 58.71 1.73005 1.82172 10.5805 0 0.0 1 0
619 1 58.71 15.8505 0.0287273 12.3209 0 0.0 1 0
408 1 58.71 3.46239 1.71345 8.83484 0 0.0 1 0
916 1 58.71 28.1375 8.952 15.8762 916 0.0756463 1 0
606 1 58.71 5.20823 1.74263 10.6133 0 0.0 1 0
412 1 58.71 6.98349 1.82245 8.86595 0 0.0 1 0
951 1 58.71 26.3326 10.6115 15.8201 951 1.30206 1 0
1030 1 58.71 26.4436 1.72697 17.5016 1030 -0.13549 1 0
416 1 58.71 10.5996 1.73019 8.88635 0 0.0 1 0
610 1 58.71 8.81754 1.84383 10.6868 0 0.0 1 0
1137 1 58.71 14.0069 10.6073 17.482 0 0.0 1 0
912 1 58.71 24.679 8.87784 15.8662 912 -0.520518 1 0
614 1 58.71 12.3677 1.69241 10.5924 0 0.0 1 0
807 1 58.71 5.29177 0.0215656 15.8278 0 0.0 1 0
420 1 58.71 13.9958 1.69382 8.88115 0 0.0 1 0
947 1 58.71 22.9363 10.6243 15.8298 947 -0.253868 1 0
618 1 58.71 15.8482 1.77892 10.5311 0 0.0 1 0
424 1 58.71 17.5874 1.77141 8.82162 424 0.541283 1 0
1086 1 58.71 5.25661 8.83879 17.5799 0 0.0 1 0
943 1 58.71 19.5149 10.5424 15.8628 943 -0.834473 1 0
428 1 58.71 21.0196 1.69596 8.9398 428 1.17029 1 0
622 1 58.71 19.3596 1.71657 10.5722 622 -0.375675 1 0
1018 1 58.71 15.698 1.75053 17.5465 0 0.0 1 0
815 1 58.71 12.3407 0.0120916 15.7394 0 0.0 1 0
626 1 58.71 22.8942 1.80714 10.6649 626 -0.240396 1 0
19 1 58.71 15.8424 0.0379505 1.80877 0 0.0 1 0
432 1 58.71 24.6341 1.77576 8.85224 432 0.439916 1 0
621 1 58.71 17.5715 0.0132915 10.6513 621 0.239209 1 0
630 1 58.71 26.3882 1.66572 10.6104 630 0.128181 1 0
436 1 58.71 28.093 1.69202 8.76124 436 0.398044 1 0
908 1 58.71 21.2287 8.82443 15.8281 908 0.019114 1 0
904 1 58.71 17.6522 8.81644 15.8729 904 -0.159887 1 0
440 1 58.71 31.6955 1.72245 8.7128 440 -0.429602 1 0
634 1 58.71 29.9308 1.76671 10.6006 634 0.244439 1 0
1122 1 58.71 1.77603 12.329 17.4369 0 0.0 1 0
939 1 58.71 15.8985 10.54 15.834 0 0.0 1 0
638 1 58.71 33.4354 1.7927 10.5619 638 -0.036835 1 0
443 1 58.71 1.70988 3.49707 8.79125 0 0.0 1 0
444 1 58.71 35.1609 5.25918 8.65331 0 0.0 1 0
641 1 58.71 35.0429 3.54383 10.5198 0 0.0 1 0
642 1 58.71 1.6131 5.33253 10.4509 0 0.0 1 0
447 1 58.71 5.32002 3.55615 8.78804 0 0.0 1 0
448 1 58.71 3.58005 5.30787 8.76786 0 0.0 1 0
645 1 58.71 3.44497 3.56416 10.6094 0 0.0 1 0
646 1 58.71 5.24111 5.28407 10.5494 0 0.0 1 0
452 1 58.71 7.1178 5.27338 8.8129 0 0.0 1 0
649 1 58.71 6.97211 3.53767 10.5279 0 0.0 1 0
451 1 58.71 8.76532 3.50338 8.87531 0 0.0 1 0
456 1 58.71 10.5722 5.20904 8.77138 0 0.0 1 0
650 1 58.71 8.74597 5.33096 10.6026 0 0.0 1 0
653 1 58.71 10.6337 3.52952 10.5846 0 0.0 1 0
455 1 58.71 12.3087 3.47279 8.86208 0 0.0 1 0
654 1 58.71 12.3467 5.25721 10.4611 0 0.0 1 0
459 1 58.71 15.8761 3.54453 8.8366 0 0.0 1 0
460 1 58.71 14.0622 5.28833 8.85092 0 0.0 1 0
657 1 58.71 14.1312 3.52582 10.5025 0 0.0 1 0
658 1 58.71 15.7917 5.32289 10.6029 0 0.0 1 0
464 1 58.71 17.5631 5.24654 8.81246 464 0.0912012 1 0
661 1 58.71 17.7056 3.53377 10.6272 661 -0.983506 1 0
463 1 58.71 19.3967 3.59289 8.90347 463 -0.45648 1 0
468 1 58.71 21.0952 5.27249 8.7709 468 1.13474 1 0
662 1 58.71 19.4323 5.34719 10.5372 662 -0.444556 1 0
665 1 58.71 21.0737 3.57365 10.6681 665 0.729947 1 0
467 1 58.71 22.9225 3.48151 8.81272 467 -0.612488 1 0
666 1 58.71 22.9556 5.27351 10.5003 666 -0.457992 1 0
471 1 58.71 26.4152 3.53042 8.87305 471 -0.0184815 1 0
472 1 58.71 24.6819 5.24204 8.80606 472 -0.0993755 1 0
669 1 58.71 24.6965 3.48915 10.6515 669 -0.0278896 1 0
670 1 58.71 26.376 5.33602 10.5617 670 0.44555 1 0
476 1 58.71 28.1515 5.30657 8.83328 476 0.562597 1 0
673 1 58.71 28.1475 3.55797 10.5731 673 0.0000726921 1 0
475 1 58.71 29.8857 3.49117 8.79557 475 0.344598 1 0
480 1 58.71 31.62 5.26178 8.77211 480 0.415748 1 0
674 1 58.71 30.035 5.27123 10.6237 674 -0.679909 1 0
677 1 58.71 31.7659 3.4594 10.5703 677 -0.806773 1 0
479 1 58.71 33.3643 3.43612 8.75029 479 0.461684 1 0
678 1 58.71 33.3987 5.36478 10.5142 678 0.34562 1 0
483 1 58.71 1.74228 7.05336 8.76177 0 0.0 1 0
681 1 58.71 35.1674 7.10365 10.4164 0 0.0 1 0
487 1 58.71 5.28191 7.11804 8.8204 0 0.0 1 0
685 1 58.71 3.44472 7.08491 10.6429 0 0.0 1 0
689 1 58.71 7.06114 7.09413 10.5334 0 0.0 1 0
491 1 58.71 8.78845 7.05109 8.77297 0 0.0 1 0
693 1 58.71 10.5479 7.04397 10.5238 0 0.0 1 0
495 1 58.71 12.2398 6.99206 8.80008 0 0.0 1 0
499 1 58.71 15.8343 7.02773 8.75606 0 0.0 1 0
697 1 58.71 14.0145 7.03464 10.5926 0 0.0 1 0
701 1 58.71 17.6428 7.04803 10.4775 701 -0.665486 1 0
503 1 58.71 19.2878 6.99964 8.76693 503 0.997637 1 0
705 1 58.71 21.1634 7.02267 10.5097 705 -0.0575813 1 0
507 1 58.71 22.9132 7.06432 8.7727 507 0.123987 1 0
511 1 58.71 26.4487 7.10188 8.88541 511 -0.377606 1 0
709 1 58.71 24.6355 7.01067 10.5698 709 0.0485937 1 0
713 1 58.71 28.2478 7.12718 10.5689 713 0.0397661 1 0
515 1 58.71 29.9584 7.08451 8.70549 515 -0.199307 1 0
717 1 58.71 31.6866 7.08451 10.4649 717 0.0657796 1 0
519 1 58.71 33.3992 7.09332 8.70726 519 0.780708 1 0