ITEM: TIMESTEP
500
ITEM: NUMBER OF ATOMS
20000
ITEM: BOX BOUNDS pp pp pp
-1.2646004580734171e-02 3.6162646004580736e+01
-1.1936783117818095e-02 3.6161936783117739e+01
-6.3811618512232826e-02 1.8081381161851212e+02
ITEM: ATOMS id type mass x y z vx vy vz
1 1 63.55 -0.00685446 0.0197695 -0.0907439 0.398108 -0.782821 -0.957342
2 1 63.55 1.80895 1.83461 -0.0819936 0.733837 0.423816 0.992078
3 1 63.55 1.76794 0.0364661 1.73384 0.600329 -0.0886703 -0.809595
4 1 63.55 -0.00366162 1.83991 1.7292 -0.148457 -0.600717 -1.13151
5 1 63.55 3.61224 0.0169319 -0.00680615 0.413319 -0.243053 0.558415
8 1 63.55 3.6608 1.81416 1.76902 0.873867 0.2272 1.12447
41 1 63.55 -0.0190604 3.62555 -0.0631258 -1.71611 -0.238805 -0.0688016
43 1 63.55 1.80392 3.61416 1.76931 -1.066 -1.47792 -1.23008
45 1 63.55 3.62948 3.60334 -0.0673656 -0.396506 0.240568 0.127238
6 1 63.55 5.44998 1.78548 -0.0917802 -0.308186 -0.400298 0.630736
7 1 63.55 5.45158 -0.0465817 1.73456 0.0543213 0.443334 0.0404026
9 1 63.55 7.25511 0.0644647 -0.0944333 -1.81527 0.247501 0.149707
12 1 63.55 7.19975 1.77881 1.75965 -0.243412 -0.250632 0.586821
47 1 63.55 5.4404 3.63525 1.74104 0.380745 -1.38768 0.270402
49 1 63.55 7.2589 3.58876 -0.105653 0.290107 -0.257443 0.56182
10 1 63.55 9.06337 1.83574 -0.0713908 -0.2434 0.441916 0.426699
11 1 63.55 9.04836 0.0333514 1.7808 -0.513335 0.00818813 -0.0907809
13 1 63.55 10.8672 0.0126566 -0.0810574 -0.838816 1.20326 0.823625
16 1 63.55 10.8222 1.85655 1.74815 -0.137454 -0.483197 1.14159
51 1 63.55 9.01777 3.62457 1.73925 0.14875 -0.417096 0.134764
53 1 63.55 10.8457 3.59354 -0.0421926 0.191143 0.507707 1.1689
14 1 63.55 12.6561 1.80623 -0.0588512 -0.247379 -0.0573238 -1.02482
15 1 63.55 12.6485 0.0117476 1.72398 1.4911 -0.0363014 -1.39431
17 1 63.55 14.4687 0.0381513 -0.0381385 -0.42275 -0.761108 1.12126
20 1 63.55 14.4706 1.81345 1.76632 0.363606 0.80962 0.172395
55 1 63.55 12.6499 3.61709 1.78479 -0.088406 -0.120711 -0.243733
57 1 63.55 14.4319 3.6258 -0.0786503 -0.690136 0.348159 0.219526
18 1 63.55 16.278 1.79787 -0.115655 0.338661 -0.850117 -1.22408
19 1 63.55 16.2489 0.020936 1.7604 -0.355074 -0.15156 -0.217765
59 1 63.55 16.2912 3.62682 1.7364 -0.839847 0.236172 -0.923727
21 1 63.55 18.0669 0.0250137 -0.0951192 -1.08178 -0.134524 -0.437102
22 1 63.55 19.9192 1.80674 -0.0848857 0.94619 0.562741 1.31798
23 1 63.55 19.8583 0.0348692 1.72115 0.284206 -0.211393 0.530764
24 1 63.55 18.0487 1.82069 1.78113 -0.405043 1.0405 -0.788835
25 1 63.55 21.6949 0.0145598 -0.0287486 -0.494707 0.476963 0.149234
28 1 63.55 21.6919 1.83989 1.73152 0.114123 -0.623369 -0.284902
61 1 63.55 18.0841 3.58913 -0.0459362 -0.209253 0.0837802 -0.590145
63 1 63.55 19.8935 3.61428 1.74644 0.99937 0.43514 1.01348
65 1 63.55 21.7226 3.59689 -0.0508504 -0.617238 -1.05388 0.214435
26 1 63.55 23.5021 1.79913 -0.133394 -0.576022 0.310928 0.285126
27 1 63.55 23.5172 0.00978298 1.7396 0.247343 0.366623 -0.488638
29 1 63.55 25.3239 -0.010999 -0.0651297 0.901119 -0.376651 0.405592
32 1 63.55 25.2974 1.78206 1.7573 0.883147 -0.255558 1.4618
67 1 63.55 23.5282 3.59805 1.69361 0.732182 0.834389 -0.845352
69 1 63.55 25.3441 3.56021 -0.0588722 -0.291513 1.28815 0.356542
30 1 63.55 27.0956 1.8078 -0.0292966 0.309716 -1.09701 -0.115303
31 1 63.55 27.1285 0.00428009 1.75086 -0.519967 -0.292353 -0.268462
33 1 63.55 28.854 0.00339574 -0.0949373 -0.465739 0.396907 -0.227994
36 1 63.55 28.9013 1.81498 1.71141 1.65385 -0.523842 0.414732
71 1 63.55 27.1336 3.61235 1.76586 0.345406 0.431642 -0.286373
73 1 63.55 28.9496 3.59652 -0.0112111 -0.919874 1.81067 -0.263153
34 1 63.55 30.718 1.77257 -0.0549452 0.557325 -0.562476 -1.19074
35 1 63.55 30.7158 0.00765766 1.69883 -0.408646 0.691871 0.60958
75 1 63.55 30.7192 3.59233 1.80008 0.749898 0.320954 0.497266
37 1 63.55 32.5711 0.00471993 -0.0991719 -0.825667 -0.255162 -1.23391
38 1 63.55 34.3359 1.76945 -0.106809 0.854385 1.47544 0.0529465
39 1 63.55 34.35 0.0317915 1.7765 -1.25362 -0.1405 0.113766
40 1 63.55 32.5394 1.81016 1.77502 0.096786 -0.500961 -0.447296
77 1 63.55 32.5595 3.59242 -0.0604166 -0.140931 -0.228636 0.986642
79 1 63.55 34.3459 3.61217 1.77121 -1.33756 0.865785 -0.479839
42 1 63.55 1.82906 5.3829 -0.0319126 0.903742 -1.44522 0.187815
44 1 63.55 -0.000232294 5.4163 1.80555 0.806702 -0.3288 2.46863
48 1 63.55 3.60635 5.42252 1.78952 -0.149934 -0.102343 0.0696913
81 1 63.55 -0.0227709 7.20808 -0.0528967 0.764513 -0.406326 -0.61446
83 1 63.55 1.75549 7.20805 1.75646 0.158276 -0.792332 -0.60626
85 1 63.55 3.62847 7.20766 -0.031238 -0.934581 0.740019 1.30605
46 1 63.55 5.39628 5.46162 -0.0468523 -0.0888758 0.400787 -0.679928
52 1 63.55 7.23322 5.41784 1.69922 0.246313 0.743413 1.46818
87 1 63.55 5.44617 7.22654 1.8002 -0.870198 0.0569136 0.123917
89 1 63.55 7.22338 7.27424 -0.0722945 0.200774 0.281455 -0.210222
50 1 63.55 9.05541 5.43221 -0.0955244 1.16317 -1.51228 -0.545642
56 1 63.55 10.7972 5.41355 1.68286 -0.0905783 -1.13359 0.175209
91 1 63.55 8.97987 7.22538 1.71954 -2.11223 0.451194 -1.16639
93 1 63.55 10.8399 7.22831 -0.122585 -0.104608 0.131569 -0.161712
54 1 63.55 12.6335 5.44731 -0.0457889 -0.155201 0.634772 -0.509058
60 1 63.55 14.5091 5.43863 1.72383 0.561025 -0.482753 1.0965
95 1 63.55 12.6478 7.22498 1.69693 0.383933 -0.937839 -0.197963
97 1 63.55 14.501 7.24138 -0.0813537 -0.00073463 -0.712738 0.375136
58 1 63.55 16.276 5.46428 -0.0671531 -0.294987 0.345123 0.0844059
99 1 63.55 16.292 7.23173 1.7727 -0.653967 -0.759964 0.00084772
62 1 63.55 19.9062 5.44528 -0.0681891 -0.392053 -0.752532 -0.319885
64 1 63.55 18.0746 5.40429 1.73359 -0.229843 -0.579706 0.47945
68 1 63.55 21.7163 5.42369 1.75066 0.312075 0.589223 0.231232
101 1 63.55 18.0746 7.2572 -0.0989081 -0.064566 1.05396 -0.887778
103 1 63.55 19.9108 7.19379 1.7547 0.332476 -0.493343 0.446988
105 1 63.55 21.7199 7.22962 -0.0305572 0.620741 -0.826938 -0.876707
66 1 63.55 23.5478 5.43116 -0.0934224 0.283509 -0.0468119 0.227971
72 1 63.55 25.3179 5.36028 1.74356 1.31253 0.932286 -0.954892
107 1 63.55 23.531 7.23208 1.76095 0.519317 -0.0292654 -0.409015
109 1 63.55 25.2736 7.23165 -0.0928449 0.384306 0.0335679 0.70497
70 1 63.55 27.1207 5.40862 -0.0384451 0.337999 0.308238 0.904652
76 1 63.55 28.9098 5.43889 1.75713 -0.461029 0.272203 -1.17862
111 1 63.55 27.0744 7.17502 1.73178 -0.851629 -0.215687 0.460126
113 1 63.55 28.9319 7.22349 -0.0469561 0.174719 -0.607124 -0.12524
74 1 63.55 30.736 5.40383 -0.0619124 0.501189 0.340805 0.0364302
115 1 63.55 30.7463 7.22599 1.69698 0.0997818 0.434806 -0.763528
78 1 63.55 34.3988 5.42842 -0.0329082 0.691611 0.377327 0.384761
80 1 63.55 32.5399 5.43191 1.71701 0.766032 0.176374 0.473713
117 1 63.55 32.5742 7.2233 -0.07909 -1.12703 -0.365448 -0.314464
119 1 63.55 34.3424 7.19937 1.72748 0.293618 -0.389915 -0.224208
82 1 63.55 1.79916 8.99113 -0.0144593 0.132891 1.43838 0.637001
84 1 63.55 -0.0229635 9.06042 1.71489 0.283458 -0.0986874 -0.0899288
88 1 63.55 3.60659 9.04155 1.76866 0.932151 0.00754777 -0.648537
121 1 63.55 -0.01319 10.8855 -0.0653516 -0.284509 -0.358385 -0.269962
123 1 63.55 1.79606 10.8881 1.7086 0.727204 -0.749973 1.01607
125 1 63.55 3.61805 10.8425 -0.0634956 -0.362755 0.246597 -0.341208
86 1 63.55 5.42371 9.05637 -0.054286 0.0664165 0.00953245 -0.385537
92 1 63.55 7.27352 9.0958 1.77715 0.882153 0.740626 0.197277
127 1 63.55 5.43759 10.846 1.74246 -0.0468554 0.318192 -0.479048
129 1 63.55 7.2862 10.8326 -0.0784105 0.870534 0.623659 0.543741
90 1 63.55 9.06596 9.0606 -0.0105696 -1.83204 -0.924851 0.92399
96 1 63.55 10.8789 9.03475 1.72573 -0.210583 -0.278387 0.28733
131 1 63.55 9.11538 10.875 1.7658 0.473306 -0.104766 -0.203877
133 1 63.55 10.868 10.8052 -0.1054 0.161478 0.766811 0.568987
94 1 63.55 12.683 9.04336 -0.0769861 -0.313022 0.627984 0.333921
100 1 63.55 14.4866 9.01593 1.74809 -0.174565 0.185848 -0.070218
135 1 63.55 12.6734 10.8372 1.7287 1.93408 0.861751 0.256713
137 1 63.55 14.5316 10.8591 -0.109206 -0.414702 0.554907 0.197769
98 1 63.55 16.2948 9.03132 -0.0627353 0.915748 -0.47844 0.493379
139 1 63.55 16.3327 10.8472 1.75031 -0.175171 0.526769 -0.755513
102 1 63.55 19.8885 8.97839 -0.0697715 -0.475622 -0.430496 -0.0835787
104 1 63.55 18.1092 9.04151 1.77998 1.91891 -1.18349 1.19962
108 1 63.55 21.716 9.02151 1.7356 1.18686 1.15629 1.02196
141 1 63.55 18.1317 10.8282 -0.112025 0.640525 -1.02973 1.53141
143 1 63.55 19.8823 10.7829 1.73675 -1.0693 -0.584166 -0.815663
145 1 63.55 21.699 10.8446 -0.105584 0.350708 0.382451 0.713689
106 1 63.55 23.5137 9.06755 -0.100453 0.133817 0.907464 0.0466432
112 1 63.55 25.323 9.0558 1.7171 0.985528 -0.100466 -1.09103
147 1 63.55 23.4743 10.8493 1.75289 0.586913 -0.132879 0.408259
149 1 63.55 25.3151 10.8447 -0.054999 -0.516067 0.316493 -0.304291
110 1 63.55 27.0828 9.0406 -0.0747184 1.05999 -0.911699 0.642133
116 1 63.55 28.8605 9.03732 1.76061 0.801213 0.241275 0.566138
151 1 63.55 27.0566 10.8467 1.74931 0.243522 -0.0224117 0.901285
153 1 63.55 28.8943 10.8391 -0.0553822 0.664042 -0.103559 0.426773
114 1 63.55 30.766 9.08777 -0.0591212 0.304596 -1.06313 0.222186
155 1 63.55 30.745 10.8376 1.72781 0.546446 0.386125 -0.617334
118 1 63.55 34.3607 9.06954 -0.0726589 -0.467396 0.0938288 -0.701594
120 1 63.55 32.576 9.02509 1.77505 0.420467 -0.434215 0.203661
157 1 63.55 32.5338 10.83 -0.0935933 1.00874 0.365948 0.3071
159 1 63.55 34.3352 10.8781 1.7776 1.36453 1.20031 0.269928
122 1 63.55 1.78261 12.6744 -0.070527 -0.705909 -0.603047 -0.220693
124 1 63.55 -0.00322901 12.7028 1.73248 -0.13044 0.562549 -0.497498
128 1 63.55 3.63149 12.6733 1.73583 0.328838 -0.708729 0.39829
161 1 63.55 -0.038907 14.4599 -0.114108 1.15413 0.0904108 0.169732
163 1 63.55 1.83005 14.5113 1.73822 -0.750762 -0.70532 -0.800335
165 1 63.55 3.57052 14.4546 -0.0444038 -0.772408 0.122897 1.09871
126 1 63.55 5.46832 12.6478 -0.108726 -0.464417 -0.0428453 0.586242
132 1 63.55 7.29758 12.6079 1.71427 1.13449 1.50417 0.340803
167 1 63.55 5.4669 14.4254 1.69955 0.332449 0.964979 -0.563736
169 1 63.55 7.23305 14.4688 -0.114069 -0.128936 -0.00802515 -0.107264
130 1 63.55 9.04063 12.664 -0.082374 -1.12742 0.273075 -1.06555
136 1 63.55 10.8452 12.6409 1.74907 0.0119153 -0.911266 -0.363635
171 1 63.55 9.01842 14.4618 1.70926 -0.754713 0.0780694 0.267799
173 1 63.55 10.8491 14.4775 -0.056437 0.521213 0.743271 -0.391542
134 1 63.55 12.6382 12.6082 -0.0783003 0.89077 1.24348 0.209618
140 1 63.55 14.491 12.6525 1.72725 0.92211 -0.319075 0.469418
175 1 63.55 12.6705 14.495 1.76521 0.130398 0.389845 -0.0152969
177 1 63.55 14.4919 14.4402 -0.095834 -0.141364 -0.0670204 -0.169943
138 1 63.55 16.3327 12.6309 -0.0745335 0.231732 0.682503 -0.594036
179 1 63.55 16.2646 14.4164 1.74738 -0.0228692 0.968898 -0.791175
142 1 63.55 19.8839 12.6683 -0.0895661 1.1359 -0.505843 -0.761468
144 1 63.55 18.0852 12.627 1.72711 0.37068 -1.29211 0.445546
148 1 63.55 21.6087 12.6462 1.72984 -0.460348 -0.838933 -0.873107
181 1 63.55 18.0292 14.5257 -0.101605 0.0454633 0.499179 0.333036
183 1 63.55 19.8564 14.4267 1.69357 0.735707 -0.332673 0.0906416
185 1 63.55 21.7141 14.4673 -0.107191 -0.144802 -0.136422 -0.232603
146 1 63.55 23.4514 12.643 -0.0251656 -2.01489 -0.838153 0.602612
152 1 63.55 25.2808 12.6357 1.78999 0.615923 -1.79439 0.277598
187 1 63.55 23.4645 14.4585 1.78901 -0.913121 0.242021 0.521667
189 1 63.55 25.2816 14.4977 -0.0585538 0.328001 -0.188573 -1.16479
150 1 63.55 27.0856 12.6499 -0.0523744 -0.74363 0.78634 0.543611
156 1 63.55 28.9446 12.6407 1.75214 0.380682 -0.556938 -0.153237
191 1 63.55 27.1329 14.4437 1.74615 1.72152 0.578393 0.283855
193 1 63.55 28.9244 14.4274 -0.0220664 0.737013 0.108887 -0.203042
154 1 63.55 30.7286 12.6098 -0.0527872 0.0270129 -1.07876 -0.397669
195 1 63.55 30.7265 14.4541 1.75244 -0.891412 0.531943 -0.440163
158 1 63.55 34.3325 12.6475 -0.0867429 0.262568 0.173886 -0.894881
160 1 63.55 32.5213 12.6476 1.69887 -0.266756 -0.779009 0.133324
197 1 63.55 32.5334 14.4351 -0.0548346 0.964723 -0.107979 -0.120952
199 1 63.55 34.3315 14.4956 1.78661 -0.569484 -1.20454 -0.591927
162 1 63.55 1.80362 16.2463 -0.10876 0.185049 -1.50079 -0.585791
164 1 63.55 -0.0335825 16.2679 1.70347 1.38916 -0.31372 -0.486135
168 1 63.55 3.63458 16.2943 1.77309 0.616111 0.334956 0.147447
166 1 63.55 5.42135 16.2659 -0.095291 -0.0449521 0.65156 0.325052
172 1 63.55 7.22349 16.2513 1.76484 -0.296479 0.0547556 0.597385
170 1 63.55 9.03862 16.266 -0.0888126 0.730197 1.62648 -0.255033
176 1 63.55 10.8441 16.2907 1.76909 -0.108203 0.553786 0.685143
174 1 63.55 12.6692 16.2715 -0.0557887 -0.242728 0.21933 0.105257
180 1 63.55 14.4778 16.2587 1.73021 -0.163505 -0.232068 0.621588
178 1 63.55 16.2629 16.2872 -0.0695114 -0.468901 1.58174 0.553569
182 1 63.55 19.9135 16.2225 -0.111745 -0.203732 -0.308621 0.631771
184 1 63.55 18.0613 16.2338 1.72473 -0.257729 -1.19868 0.523151
188 1 63.55 21.7052 16.2243 1.74206 -0.579126 0.232285 0.384642
186 1 63.55 23.5381 16.2495 -0.0907184 0.406182 0.842151 -0.20868
192 1 63.55 25.2992 16.2895 1.74731 -0.477845 -0.716622 -0.312347
190 1 63.55 27.1176 16.212 -0.0277947 0.0579404 0.58356 -1.37624
196 1 63.55 28.9271 16.2678 1.7274 0.580846 0.145993 -0.460282
194 1 63.55 30.7292 16.2603 -0.0869729 0.938387 0.0131335 0.0279865
198 1 63.55 34.3445 16.2292 -0.0275132 -0.596752 0.379259 -0.364885
200 1 63.55 32.5293 16.3126 1.73393 0.386109 -1.51558 0.379863
201 1 63.55 -0.0632231 18.0879 -0.0689432 0.336225 -1.87049 1.23473
202 1 63.55 1.76662 19.8589 -0.0600659 -0.803542 0.231571 -0.537864
203 1 63.55 1.76638 18.0415 1.74523 0.113992 0.879978 -0.365642
204 1 63.55 -0.0239197 19.8537 1.76339 -1.78224 -0.294408 0.602252
205 1 63.55 3.56402 18.0557 -0.0476998 1.31584 -0.650794 -0.188283
208 1 63.55 3.61762 19.8722 1.73393 0.275339 -0.412619 -1.14204
241 1 63.55 0.0382102 21.6155 -0.072817 0.129716 -0.884293 -1.69023
243 1 63.55 1.81123 21.6406 1.73231 -0.570797 0.736 -1.64322
245 1 63.55 3.63503 21.641 -0.0915715 -0.0709507 -0.0177708 1.17671
206 1 63.55 5.43089 19.8418 -0.101453 -0.695324 -0.430644 0.722225
207 1 63.55 5.43015 18.0732 1.71277 -0.154096 1.25068 -0.687032
209 1 63.55 7.24432 18.0383 -0.0735741 0.713435 -1.60122 0.0323474
212 1 63.55 7.23532 19.8486 1.75801 0.816786 0.231068 -0.140344
247 1 63.55 5.46675 21.6711 1.72993 0.482385 -0.55305 1.07885
249 1 63.55 7.2246 21.6806 -0.0754636 0.118004 0.566562 -0.139412
210 1 63.55 9.0403 19.8345 -0.0668138 2.09292 -0.147683 0.396141
211 1 63.55 9.09216 18.0418 1.74068 1.14787 -0.0674799 1.50069
213 1 63.55 10.8846 18.04 -0.095599 -0.720941 -1.12942 -0.0166249
216 1 63.55 10.888 19.8376 1.78456 -0.31256 -1.00347 -0.144691
251 1 63.55 9.0206 21.6707 1.71304 0.567855 -0.820286 -0.282858
253 1 63.55 10.8414 21.6784 -0.0438275 0.647703 0.383944 0.252413
214 1 63.55 12.632 19.8552 -0.0770931 -0.309782 0.133101 0.479185
215 1 63.55 12.7129 18.1066 1.74857 0.689503 0.0140649 1.8111
217 1 63.55 14.4151 18.086 -0.0704177 -0.162736 -0.59133 0.00564563
220 1 63.55 14.4301 19.8931 1.73805 -0.596704 -1.08559 -0.862451
255 1 63.55 12.6138 21.6682 1.77031 0.3964 0.0608199 0.546698
257 1 63.55 14.4738 21.6905 -0.0486348 0.419536 0.444303 0.602472
218 1 63.55 16.2919 19.8708 -0.0887886 -0.0215845 0.235232 -0.853233
219 1 63.55 16.2489 18.0616 1.73111 0.0488659 0.449285 -0.853091
259 1 63.55 16.2637 21.6951 1.7862 1.05125 0.617997 -0.983259
221 1 63.55 18.0469 18.0738 -0.0877408 1.38874 0.870467 0.313537
222 1 63.55 19.8339 19.8644 -0.0384671 -0.671345 0.629391 1.09661
223 1 63.55 19.8755 18.0534 1.7122 1.10413 0.530088 0.266521
224 1 63.55 18.0523 19.8922 1.73121 -0.513304 -0.0989302 -0.0180807
225 1 63.55 21.7069 18.0372 -0.0737852 0.65836 0.916151 0.54897
228 1 63.55 21.6642 19.8701 1.76049 -0.183879 1.17445 -1.09063
261 1 63.55 18.0431 21.7136 -0.0709366 0.0527413 0.664029 0.0345279
263 1 63.55 19.8398 21.7235 1.75481 0.758908 -0.0428905 0.171031
265 1 63.55 21.6862 21.6839 -0.0775561 -0.719115 -0.561488 0.242897
226 1 63.55 23.5311 19.9012 -0.0423096 0.569797 0.0876333 0.335409
227 1 63.55 23.5135 18.098 1.73102 0.984077 -0.21345 0.253474
229 1 63.55 25.3349 18.0779 -0.0301657 -0.866503 -0.489913 0.811179
232 1 63.55 25.3178 19.8344 1.80295 -0.559536 0.40892 0.987479
267 1 63.55 23.4943 21.6772 1.71346 0.968491 -1.40299 1.46529
269 1 63.55 25.3385 21.674 -0.0416106 -0.308111 -1.22623 -1.27767
230 1 63.55 27.1288 19.8539 -0.0175566 -1.27259 -1.04054 -0.298072
231 1 63.55 27.1118 17.9962 1.7662 1.7016 -0.77775 -0.162447
233 1 63.55 28.9056 18.0681 -0.0334171 0.559811 -0.686199 0.0426103
236 1 63.55 28.9511 19.8343 1.76332 -0.186361 0.703301 -0.0408529
271 1 63.55 27.1203 21.6657 1.76269 0.0240273 -1.08341 0.60983
273 1 63.55 28.9393 21.6601 -0.01675 0.938942 1.15284 -0.0305588
234 1 63.55 30.69 19.9037 -0.0848226 0.160715 -0.936734 1.78779
235 1 63.55 30.7663 18.048 1.69867 0.544443 1.67267 -1.52515
275 1 63.55 30.7017 21.6936 1.78831 -0.443312 -0.0177599 0.730334
237 1 63.55 32.5679 18.0525 -0.0825754 0.121909 -2.11801 -0.100079
238 1 63.55 34.3558 19.8899 -0.0746238 0.582299 0.783055 -0.235229
239 1 63.55 34.3208 18.1018 1.79759 -0.239539 0.08602 0.0565197
240 1 63.55 32.5073 19.8252 1.7389 -0.427991 -1.41196 -0.285277
277 1 63.55 32.5346 21.7251 -0.000843633 -0.19626 0.629156 -0.383401
279 1 63.55 34.379 21.6705 1.7921 -0.569075 0.662764 0.217446
242 1 63.55 1.82542 23.4487 -0.0581159 -1.08242 0.643749 -0.352268
244 1 63.55 0.00482751 23.4662 1.71639 0.347563 0.312668 -0.0679389
248 1 63.55 3.64417 23.4953 1.75576 -0.826772 0.620957 0.284317
281 1 63.55 0.0102966 25.2921 -0.0473817 -0.718995 -0.274438 -0.536026
283 1 63.55 1.82729 25.3198 1.7422 0.73274 -0.214879 -1.81931
285 1 63.55 3.6148 25.2877 -0.0749324 -0.669718 -0.796583 -0.208797
246 1 63.55 5.42788 23.4972 -0.0859354 0.710457 -0.16119 1.33437
252 1 63.55 7.23035 23.4886 1.73685 0.691204 0.460739 -0.609272
287 1 63.55 5.43346 25.2734 1.69546 0.407847 0.514111 0.316894
289 1 63.55 7.2366 25.3238 -0.026138 0.392748 0.873514 0.872628
250 1 63.55 9.02285 23.4649 -0.100448 0.521134 0.170459 -0.21324
256 1 63.55 10.816 23.5098 1.75313 1.35859 -0.337199 0.0559786
291 1 63.55 9.02368 25.309 1.7125 -0.854193 0.396779 -0.491048
293 1 63.55 10.8452 25.2865 -0.131419 0.502473 0.263308 0.546672
254 1 63.55 12.6205 23.4879 -0.0494376 1.28359 -0.139721 -0.213208
260 1 63.55 14.4502 23.4864 1.73856 -0.232238 -0.514034 -0.266197
295 1 63.55 12.6351 25.3241 1.70994 0.14907 0.525482 -0.557068
297 1 63.55 14.4902 25.2699 -0.0795544 -0.223506 -0.290221 0.369934
258 1 63.55 16.2876 23.4697 -0.0449267 -0.700588 -1.27689 0.177171
299 1 63.55 16.2552 25.3107 1.77595 -0.643729 -0.496211 0.321538
262 1 63.55 19.9045 23.5208 -0.0835835 1.20627 -1.88499 -0.575996
264 1 63.55 18.0703 23.5398 1.76067 -0.19076 -0.160531 -0.0015921
268 1 63.55 21.6882 23.5555 1.74153 -0.412936 -0.0634189 -0.0801276
301 1 63.55 18.0568 25.339 -0.0696433 -0.946421 1.2999 -0.39257
303 1 63.55 19.8694 25.3106 1.74767 -0.045386 0.347737 0.507077
305 1 63.55 21.6678 25.2767 -0.0802731 -0.0983353 -0.244109 0.422571
266 1 63.55 23.4893 23.4783 -0.0710674 1.77111 -0.772554 -0.325193
272 1 63.55 25.356 23.4685 1.77442 1.42934 -0.00113944 0.037422
307 1 63.55 23.5049 25.2875 1.748 0.0620707 0.292724 0.476233
309 1 63.55 25.3197 25.3032 0.00927335 -0.21781 -0.857489 -0.272551
270 1 63.55 27.1071 23.4878 -0.0302035 -0.229923 0.16056 -0.375561
276 1 63.55 28.8807 23.545 1.73789 -1.20544 -0.485076 0.651466
311 1 63.55 27.0977 25.3475 1.79365 -0.290473 -0.00426496 0.291205
313 1 63.55 28.916 25.2894 -0.0802913 -0.358825 -0.0187592 -0.658665
274 1 63.55 30.7523 23.4756 -0.0267559 0.025981 -0.276211 -2.07351
315 1 63.55 30.7453 25.3185 1.71889 -0.205379 -0.0574507 1.02981
278 1 63.55 34.3869 23.4864 -0.0145413 0.424155 0.866683 -1.45147
280 1 63.55 32.5338 23.5447 1.77149 -0.965002 0.549758 0.306642
317 1 63.55 32.5472 25.3191 -0.0736199 0.935859 -0.848621 1.16045
319 1 63.55 34.3703 25.3486 1.73138 -1.09756 0.31371 -0.432069
282 1 63.55 1.83007 27.0898 -0.0768965 -0.293111 -0.118653 -0.213325
284 1 63.55 0.0569666 27.1279 1.7102 -0.739759 0.0167264 -0.552038
288 1 63.55 3.62602 27.0879 1.6943 -1.99195 -0.0107071 -0.474831
321 1 63.55 0.0162025 28.9837 -0.0177335 0.0626006 -0.133443 -1.32859
323 1 63.55 1.86001 28.9698 1.71342 0.686355 1.41345 -1.00244
325 1 63.55 3.60009 28.9281 -0.0608998 0.225212 -0.405387 -1.06625
286 1 63.55 5.42857 27.0809 -0.054756 -0.00709792 -0.485534 -0.246449
292 1 63.55 7.25293 27.1141 1.70558 0.701727 -0.0234825 -0.724686
327 1 63.55 5.38105 28.9117 1.73573 -0.135063 0.356575 0.224133
329 1 63.55 7.23268 28.9466 -0.0726605 -0.132813 -0.598852 0.355289
290 1 63.55 9.08652 27.1415 -0.0590479 -0.236148 0.249247 0.0955534
296 1 63.55 10.8792 27.103 1.73009 -0.0939499 -0.0691042 -0.0262333
331 1 63.55 9.06428 28.907 1.75122 -1.59104 0.884076 -0.18959
333 1 63.55 10.8428 28.9681 -0.115941 1.3903 -0.0375811 -0.685596
294 1 63.55 12.631 27.1096 -0.0776936 0.0211558 0.26564 0.114119
300 1 63.55 14.4158 27.1267 1.75318 0.847152 0.497618 0.00808213
335 1 63.55 12.6108 28.9302 1.74852 0.376424 -1.34904 -1.28897
337 1 63.55 14.4606 28.9367 -0.0676726 0.973888 -1.68911 -0.510653
298 1 63.55 16.1894 27.0923 -0.0640609 1.41177 0.7374 -0.693558
339 1 63.55 16.2357 28.8999 1.71294 -0.354311 0.187962 -0.233788
302 1 63.55 19.8761 27.096 -0.102679 -0.789093 -0.352868 -0.793924
304 1 63.55 18.0576 27.1453 1.77215 -0.963816 -0.449856 -1.13319
308 1 63.55 21.7123 27.1068 1.71934 -0.0940242 1.79262 0.430466
341 1 63.55 18.0721 28.9059 -0.0800289 0.609684 0.728964 -0.952601
343 1 63.55 19.919 28.8937 1.75362 -0.610562 1.46715 0.132722
345 1 63.55 21.6741 28.9113 -0.1189 0.51066 1.22279 0.878084
306 1 63.55 23.4941 27.1007 -0.0887909 0.703385 0.516429 0.748732
312 1 63.55 25.2704 27.1498 1.78624 0.0689249 0.18807 0.835554
347 1 63.55 23.4741 28.9576 1.70722 0.284018 0.0271871 0.536956
349 1 63.55 25.2969 28.9136 -0.0403489 -0.0427223 -0.173596 0.829121
310 1 63.55 27.1423 27.1508 -0.0621177 -1.08051 0.241349 0.717713
316 1 63.55 28.9309 27.1532 1.74346 -0.891549 0.487361 0.334704
351 1 63.55 27.1019 28.9018 1.77509 -0.790023 -0.492062 0.632953
353 1 63.55 28.9437 28.931 -0.0334936 0.337762 0.20551 0.439877
314 1 63.55 30.7523 27.1239 -0.0396425 -1.74533 -0.559889 -1.54459
355 1 63.55 30.721 28.9306 1.71085 1.28381 0.605413 -1.01373
318 1 63.55 34.415 27.1057 -0.0520355 -0.348033 0.286972 0.559012
320 1 63.55 32.5985 27.1343 1.74362 -0.62468 -0.364286 0.133071
357 1 63.55 32.5334 28.9233 -0.0414693 -0.460261 1.04744 0.954023
359 1 63.55 34.3824 28.9192 1.71383 0.784947 0.457152 -0.490201
322 1 63.55 1.7781 30.7498 -0.041885 -1.69757 0.328041 1.001
324 1 63.55 -0.00486859 30.7587 1.78007 -0.666361 -1.31168 0.171856
328 1 63.55 3.61397 30.7953 1.73552 -0.0856094 -0.217976 -0.254654
326 1 63.55 5.38419 30.7804 -0.00804903 -1.10153 1.17225 -0.859692
332 1 63.55 7.23961 30.7185 1.74057 -0.158729 -0.931073 -0.280497
330 1 63.55 9.01171 30.771 -0.0860586 0.0326686 0.244514 1.341
336 1 63.55 10.8438 30.7501 1.66722 1.21986 0.157274 0.589714
334 1 63.55 12.6544 30.7774 -0.0962929 -0.36801 -0.0967256 -0.0177799
340 1 63.55 14.4636 30.7457 1.70853 0.729864 0.357958 0.312816
338 1 63.55 16.2314 30.7171 -0.0572866 0.414053 -1.30921 -0.736391
342 1 63.55 19.8208 30.7299 -0.0852037 -0.927248 -0.823657 0.724547
344 1 63.55 18.061 30.7484 1.70555 1.39605 -0.495238 -0.776102
348 1 63.55 21.671 30.7428 1.70995 -1.05864 -0.475951 -1.06957
346 1 63.55 23.4486 30.7726 -0.05665 -0.254733 -0.410146 -0.0428831
352 1 63.55 25.2971 30.7166 1.75191 -1.11766 -0.409709 -0.467371
350 1 63.55 27.0777 30.7268 -0.0737423 -0.597496 1.56923 0.900145
356 1 63.55 28.9261 30.7101 1.72906 0.0773346 1.48513 -0.398533
354 1 63.55 30.7708 30.7748 -0.0375035 -0.0106717 1.22208 0.461832
358 1 63.55 34.3644 30.7432 -0.0182887 -0.551198 -0.631364 0.969161
360 1 63.55 32.5533 30.7057 1.7447 0.22416 -0.311191 0.600578
361 1 63.55 0.0167824 32.549 0.00409632 -0.0479543 0.242829 -0.0630407
362 1 63.55 1.79627 34.3712 -0.0956251 -1.0655 -0.574716 0.715657
363 1 63.55 1.78097 32.5934 1.7315 -0.421052 0.296703 -0.243562
364 1 63.55 -0.0322045 34.4283 1.7468 0.0879317 -0.866929 0.763487
365 1 63.55 3.59486 32.6078 -0.0469933 -0.35624 0.491633 -0.596877
368 1 63.55 3.60668 34.3795 1.71156 0.382111 0.568853 1.1036
366 1 63.55 5.46162 34.4068 -0.091681 0.730374 1.68515 0.562887
367 1 63.55 5.3803 32.6045 1.75214 -0.401354 1.62125 -0.154735
369 1 63.55 7.19814 32.5246 -0.042759 -0.209393 -0.388671 0.6584
372 1 63.55 7.2394 34.3739 1.6852 0.376759 -0.35923 -0.440685
370 1 63.55 9.03097 34.4236 -0.103976 -0.740656 -0.553387 -0.71279
371 1 63.55 9.00036 32.5769 1.71402 -0.657743 0.445661 -0.186113
373 1 63.55 10.8152 32.5914 -0.116086 0.705943 0.404872 0.0838281
376 1 63.55 10.8396 34.3859 1.76303 1.04135 0.860265 -0.496912
374 1 63.55 12.647 34.4083 -0.0887435 1.34667 -1.11285 0.516063
375 1 63.55 12.655 32.5996 1.65714 0.15653 -0.638464 -0.506593
377 1 63.55 14.5168 32.5805 -0.0965516 -0.413843 0.378344 0.265759
380 1 63.55 14.4582 34.3774 1.74162 -0.756447 0.105582 -0.273502
378 1 63.55 16.261 34.4156 -0.0342161 0.242139 0.303846 0.540272
379 1 63.55 16.2754 32.6045 1.74951 -0.899684 0.0496937 0.571096
381 1 63.55 18.0116 32.5729 -0.0636653 0.58092 -0.280554 -1.16785
382 1 63.55 19.9073 34.3876 -0.0466242 -1.04764 1.17712 -0.118069
383 1 63.55 19.9242 32.589 1.7118 -1.12495 0.432362 0.254804
384 1 63.55 18.0908 34.4146 1.77535 -1.4477 -0.255609 0.0752167
385 1 63.55 21.6712 32.6037 -0.0957938 1.37913 1.19786 -0.922991
388 1 63.55 21.7268 34.4322 1.77668 0.379662 -0.0322117 0.920507
386 1 63.55 23.4986 34.3774 -0.0612028 -0.857052 -0.788405 0.917506
387 1 63.55 23.4731 32.606 1.75693 0.534095 0.620699 0.653819
389 1 63.55 25.2943 32.5156 -0.0875627 -1.15458 0.979005 -0.623302
392 1 63.55 25.3387 34.3658 1.73566 -0.26617 1.12146 -0.13961
390 1 63.55 27.0767 34.3642 -0.108999 0.522732 0.587624 -0.365183
391 1 63.55 27.1015 32.5333 1.70906 0.810798 0.317498 -1.15784
393 1 63.55 28.9232 32.5393 -0.0873296 0.0497562 -0.555186 -0.138423
396 1 63.55 28.9005 34.3989 1.67034 0.34032 0.781178 -0.0821038
394 1 63.55 30.7305 34.4075 -0.100108 0.440292 -0.0506508 -0.546153
395 1 63.55 30.7414 32.5371 1.77045 0.147601 -0.334343 -0.0349293
397 1 63.55 32.5468 32.5608 -0.0401037 -0.395432 0.59556 -0.77792
398 1 63.55 34.3585 34.3889 -0.0361374 0.730877 -0.479167 0.104558
399 1 63.55 34.322 32.5744 1.76956 0.204718 0.528904 -0.0940382
400 1 63.55 32.5398 34.3962 1.73791 -0.460416 0.61516 1.68868
401 1 63.55 -0.0781273 0.0104253 3.54481 -0.195491 -0.626806 0.275911
402 1 63.55 1.7721 1.78101 3.58678 1.15411 -0.619006 1.51752
403 1 63.55 1.78128 0.0270185 5.36308 1.09157 0.653475 1.29617
404 1 63.55 -0.0241618 1.8339 5.39869 0.328347 -1.33718 -0.197791
405 1 63.55 3.59551 -0.0277927 3.50237 0.0885857 -0.00570417 -0.248159
408 1 63.55 3.60487 1.79596 5.37603 -1.30745 -0.731452 0.376713
441 1 63.55 -0.0235856 3.60186 3.58512 1.18832 -0.367001 -0.73394
443 1 63.55 1.79419 3.6229 5.36186 0.544686 0.283384 2.10196
445 1 63.55 3.62536 3.60286 3.53601 -1.54904 -0.534192 0.761976
406 1 63.55 5.40245 1.82596 3.54384 0.638379 -0.476944 0.420156
407 1 63.55 5.40597 -0.0332353 5.34162 0.859866 0.164376 -0.419562
409 1 63.55 7.25224 0.0360776 3.53712 -0.240032 -0.899764 -2.03191
412 1 63.55 7.22852 1.80423 5.36026 1.62735 0.287465 0.329378
447 1 63.55 5.43516 3.6002 5.34698 -0.341688 -0.181128 -0.61074
449 1 63.55 7.23737 3.61497 3.5415 -1.81568 -0.993082 0.974621
410 1 63.55 9.03336 1.85046 3.54756 -0.628577 -1.3972 0.0419884
411 1 63.55 9.03969 0.0216536 5.36743 0.124162 -0.984421 0.82578
413 1 63.55 10.8409 0.042963 3.58353 0.190709 -0.559349 0.478179
416 1 63.55 10.8344 1.84189 5.36083 1.30482 -0.50745 0.0521553
451 1 63.55 9.03574 3.59135 5.34501 -0.820946 -0.146345 -1.81182
453 1 63.55 10.8447 3.63525 3.5348 0.630835 0.122698 0.762688
414 1 63.55 12.6837 1.79463 3.52071 -0.272991 0.212504 -0.424647
415 1 63.55 12.6145 0.0168216 5.34956 0.275179 -0.270727 0.976451
417 1 63.55 14.4575 0.000947906 3.56061 0.187063 0.714626 0.676739
420 1 63.55 14.4746 1.81668 5.34247 -0.418613 -0.354209 -1.47434
455 1 63.55 12.6434 3.63527 5.29525 0.371068 0.15158 0.307947
457 1 63.55 14.4785 3.61995 3.56933 -1.61366 -0.630127 -0.269308
418 1 63.55 16.2762 1.82344 3.55006 0.0138567 0.750059 0.154555
419 1 63.55 16.2833 0.0301834 5.3392 0.107716 2.12847 -1.57268
459 1 63.55 16.2546 3.59386 5.38624 0.313647 -0.109597 -0.293193
421 1 63.55 18.1187 0.0159504 3.56601 -0.290788 0.596538 -0.87497
422 1 63.55 19.9033 1.84655 3.55312 -0.483805 -1.25288 -0.600074
423 1 63.55 19.8915 0.00122383 5.36978 1.06415 0.783071 -0.23062
424 1 63.55 18.0934 1.816 5.34531 -0.419153 -0.542781 -0.402588
425 1 63.55 21.7154 0.0264301 3.53546 1.19646 0.886619 0.389074
428 1 63.55 21.7306 1.77822 5.33921 -0.300037 0.961581 1.23573
461 1 63.55 18.0582 3.65805 3.56953 0.246817 -0.670977 -0.793917
463 1 63.55 19.945 3.5824 5.36195 -0.234059 -0.184143 0.458043
465 1 63.55 21.7185 3.60982 3.53357 0.22187 0.225747 -0.102174
426 1 63.55 23.5825 1.85206 3.57522 0.941704 0.924378 0.107982
427 1 63.55 23.5217 -0.00573229 5.39525 -0.50075 -0.756926 -0.0243645
429 1 63.55 25.3045 -0.00165172 3.56904 -0.536019 -0.469715 1.11308
432 1 63.55 25.3483 1.75514 5.4118 -0.165226 0.327773 0.121626
467 1 63.55 23.4927 3.58192 5.36383 -0.194861 -0.321843 0.232065
469 1 63.55 25.375 3.61184 3.64976 -0.941242 0.474012 -0.355327
430 1 63.55 27.0903 1.80556 3.59968 1.23505 -0.607813 -0.228123
431 1 63.55 27.1107 -0.0276965 5.38503 0.0575843 -1.1032 0.987391
433 1 63.55 28.9057 -0.0214565 3.55481 -0.0296379 -0.148594 0.661375
436 1 63.55 28.905 1.8269 5.39729 0.0552502 -0.058657 0.0803791
471 1 63.55 27.1527 3.61239 5.37571 -1.24904 1.71096 -0.236348