ITEM: TIMESTEP
0
ITEM: NUMBER OF ATOMS
20000
ITEM: BOX BOUNDS pp pp pp
0.0000000000000000e+00 3.6150000000000006e+01
0.0000000000000000e+00 3.6150000000000006e+01
0.0000000000000000e+00 1.8075000000000000e+02
ITEM: ATOMS id type mass x y z vx vy vz
1 1 63.55 0 0 7.43678e-15 -1.39061 1.15855 1.54775
2 1 63.55 1.8075 1.8075 7.4819e-15 -1.60126 -1.69386 -1.56165
3 1 63.55 1.8075 0 1.8075 0.930203 0.294744 1.43132
4 1 63.55 0 1.8075 1.8075 0.992676 -0.578488 -1.06237
5 1 63.55 3.615 0 7.42586e-15 -0.799001 1.01535 1.67324
8 1 63.55 3.615 1.8075 1.8075 -1.00038 1.44523 -0.911802
41 1 63.55 0 3.615 7.4385e-15 -0.769493 1.00834 -1.63476
43 1 63.55 1.8075 3.615 1.8075 -0.539014 0.689963 -1.18417
45 1 63.55 3.615 3.615 7.46552e-15 1.3482 -0.974339 1.32168
6 1 63.55 5.4225 1.8075 7.47012e-15 -1.20933 -0.557679 -1.62077
7 1 63.55 5.4225 0 1.8075 -0.802431 -1.15325 1.25869
9 1 63.55 7.23 0 7.41609e-15 1.50064 1.51149 -0.675795
12 1 63.55 7.23 1.8075 1.8075 1.56708 1.49451 -1.56037
47 1 63.55 5.4225 3.615 1.8075 1.11428 0.456315 1.35037
49 1 63.55 7.23 3.615 7.38045e-15 1.40062 -0.954141 0.914378
10 1 63.55 9.0375 1.8075 7.3724e-15 0.457843 0.0420192 -1.05275
11 1 63.55 9.0375 0 1.8075 1.43262 -0.572754 1.66742
13 1 63.55 10.845 0 7.42241e-15 1.47587 1.34394 -0.502566
16 1 63.55 10.845 1.8075 1.8075 -0.660179 0.106301 0.721629
51 1 63.55 9.0375 3.615 1.8075 -0.141159 0.761504 1.20994
53 1 63.55 10.845 3.615 7.41034e-15 -0.818411 0.788995 -1.48918
14 1 63.55 12.6525 1.8075 7.3793e-15 -1.35845 0.676637 0.283877
15 1 63.55 12.6525 0 1.8075 -0.884145 -1.11732 1.71805
17 1 63.55 14.46 0 7.28791e-15 0.370966 -0.00396056 -0.427971
20 1 63.55 14.46 1.8075 1.8075 0.240277 -1.13039 0.572917
55 1 63.55 12.6525 3.615 1.8075 -1.43636 -1.29906 -0.727687
57 1 63.55 14.46 3.615 7.32527e-15 0.786318 -0.643422 0.0727948
18 1 63.55 16.2675 1.8075 7.33446e-15 0.350501 -0.605411 0.775182
19 1 63.55 16.2675 0 1.8075 -1.28811 0.109055 -1.54105
59 1 63.55 16.2675 3.615 1.8075 -0.755601 -1.35133 1.70538
21 1 63.55 18.075 0 7.36435e-15 1.54282 -0.57159 0.4261
22 1 63.55 19.8825 1.8075 7.3793e-15 -0.124573 -1.39793 -1.24597
23 1 63.55 19.8825 0 1.8075 0.195482 -1.39545 -1.21999
24 1 63.55 18.075 1.8075 1.8075 -0.226278 -0.939393 -0.92467
25 1 63.55 21.69 0 7.32699e-15 0.267908 -1.46921 0.798182
28 1 63.55 21.69 1.8075 1.8075 0.478556 1.34159 1.66217
61 1 63.55 18.075 3.615 7.38735e-15 1.31094 0.505124 -0.279206
63 1 63.55 19.8825 3.615 1.8075 0.243468 0.488075 1.03708
65 1 63.55 21.69 3.615 7.32067e-15 1.25938 1.02853 1.3421
26 1 63.55 23.4975 1.8075 7.3632e-15 0.298721 -0.355194 -0.744457
27 1 63.55 23.4975 0 1.8075 1.37337 -1.12652 -0.335929
29 1 63.55 25.305 0 7.37872e-15 0.0460025 0.740629 0.659641
32 1 63.55 25.305 1.8075 1.8075 -0.463778 -0.70324 0.488765
67 1 63.55 23.4975 3.615 1.8075 0.122183 1.35015 -0.111188
69 1 63.55 25.305 3.615 7.39424e-15 1.47911 0.376586 0.0670926
30 1 63.55 27.1125 1.8075 7.32067e-15 -0.993486 -0.667379 -0.268626
31 1 63.55 27.1125 0 1.8075 1.01686 0.149341 -0.756741
33 1 63.55 28.92 0 7.27009e-15 -1.25016 -0.177227 0.764022
36 1 63.55 28.92 1.8075 1.8075 -1.45296 0.689321 -1.57051
71 1 63.55 27.1125 3.615 1.8075 0.240489 -1.02708 -0.777506
73 1 63.55 28.92 3.615 7.33446e-15 1.36945 -1.10814 -0.0647677
34 1 63.55 30.7275 1.8075 7.32527e-15 -1.56432 -1.67294 -0.213355
35 1 63.55 30.7275 0 1.8075 0.482594 -0.154125 0.595438
75 1 63.55 30.7275 3.615 1.8075 0.768469 1.10433 -1.05046
37 1 63.55 32.535 0 7.38232e-15 0.990902 0.822394 1.48144
38 1 63.55 34.3425 1.8075 7.41149e-15 0.60762 -0.56302 -1.20424
39 1 63.55 34.3425 0 1.8075 0.925744 1.66151 -0.594329
40 1 63.55 32.535 1.8075 1.8075 -0.277895 -1.40598 -1.30711
77 1 63.55 32.535 3.615 7.36838e-15 0.0200291 1.19825 -0.623866
79 1 63.55 34.3425 3.615 1.8075 0.144014 0.624669 0.835444
42 1 63.55 1.8075 5.4225 7.48391e-15 -0.163844 0.998372 0.768004
44 1 63.55 0 5.4225 1.8075 -1.63698 1.38651 0.565477
48 1 63.55 3.615 5.4225 1.8075 0.0845722 0.430529 1.48995
81 1 63.55 0 7.23 7.41839e-15 -1.14183 -0.304762 0.618759
83 1 63.55 1.8075 7.23 1.8075 -1.39589 -0.876219 -0.429158
85 1 63.55 3.615 7.23 7.37355e-15 -1.61943 1.56245 -0.881289
46 1 63.55 5.4225 5.4225 7.5115e-15 -0.0981173 -0.682882 -0.716202
52 1 63.55 7.23 5.4225 1.8075 -1.71659 -1.25798 -0.602409
87 1 63.55 5.4225 7.23 1.8075 1.59652 0.358861 0.428357
89 1 63.55 7.23 7.23 7.32297e-15 0.493657 -1.51083 -1.72127
50 1 63.55 9.0375 5.4225 7.37355e-15 0.612607 0.00188629 0.730678
56 1 63.55 10.845 5.4225 1.8075 -1.17305 -1.35045 -0.873257
91 1 63.55 9.0375 7.23 1.8075 -0.299902 -0.194763 0.836124
93 1 63.55 10.845 7.23 7.35976e-15 -0.308699 1.09588 -0.814964
54 1 63.55 12.6525 5.4225 7.36665e-15 1.521 0.369576 0.170556
60 1 63.55 14.46 5.4225 1.8075 1.48291 -1.64419 0.925975
95 1 63.55 12.6525 7.23 1.8075 -1.49931 -1.57463 1.20778
97 1 63.55 14.46 7.23 7.28158e-15 -0.0964076 0.305913 -1.60386
58 1 63.55 16.2675 5.4225 7.34366e-15 -0.584167 1.33011 -0.555976
99 1 63.55 16.2675 7.23 1.8075 0.986564 0.740409 0.426539
62 1 63.55 19.8825 5.4225 7.39194e-15 0.0794023 0.244874 -0.902179
64 1 63.55 18.075 5.4225 1.8075 -0.634342 0.809827 -1.65139
68 1 63.55 21.69 5.4225 1.8075 0.844509 -0.654621 -0.865168
101 1 63.55 18.075 7.23 7.29998e-15 -1.31813 -1.56258 -0.933312
103 1 63.55 19.8825 7.23 1.8075 -0.302612 -0.648594 -0.156995
105 1 63.55 21.69 7.23 7.25399e-15 -1.60235 0.774067 0.798145
66 1 63.55 23.4975 5.4225 7.39194e-15 -0.288927 0.455132 -1.18675
72 1 63.55 25.305 5.4225 1.8075 0.823822 -1.52289 0.357886
107 1 63.55 23.4975 7.23 1.8075 -0.548963 -0.0476277 0.914886
109 1 63.55 25.305 7.23 7.29538e-15 0.619505 1.48585 -1.49178
70 1 63.55 27.1125 5.4225 7.33676e-15 0.688007 1.35917 -1.10915
76 1 63.55 28.92 5.4225 1.8075 -1.71424 -0.0065362 1.36977
111 1 63.55 27.1125 7.23 1.8075 -0.29041 -0.196195 1.04353
113 1 63.55 28.92 7.23 7.26779e-15 1.30093 -1.1814 -0.12606
74 1 63.55 30.7275 5.4225 7.34826e-15 0.687215 -1.54613 1.62342
115 1 63.55 30.7275 7.23 1.8075 0.16279 0.590649 1.30858
78 1 63.55 34.3425 5.4225 7.41264e-15 -0.75252 -1.58876 -0.482667
80 1 63.55 32.535 5.4225 1.8075 -1.17355 0.751521 -0.105528
117 1 63.55 32.535 7.23 7.31176e-15 0.560927 -1.52628 -1.1878
119 1 63.55 34.3425 7.23 1.8075 -0.423474 0.390586 -0.474023
82 1 63.55 1.8075 9.0375 7.3678e-15 -1.40236 1.30511 -1.04012
84 1 63.55 0 9.0375 1.8075 1.20584 -0.534605 1.21325
88 1 63.55 3.615 9.0375 1.8075 -0.339572 -1.023 -1.56291
121 1 63.55 0 10.845 7.42816e-15 1.57547 0.224833 -1.32582
123 1 63.55 1.8075 10.845 1.8075 -0.541486 0.763169 1.45403
125 1 63.55 3.615 10.845 7.41264e-15 -1.32359 0.427746 -0.194647
86 1 63.55 5.4225 9.0375 7.35516e-15 1.04634 -0.376809 0.125751
92 1 63.55 7.23 9.0375 1.8075 -0.144233 1.13099 -0.308325
127 1 63.55 5.4225 10.845 1.8075 1.70326 1.25255 -0.0906726
129 1 63.55 7.23 10.845 7.37585e-15 -1.01862 0.0511212 -0.676632
90 1 63.55 9.0375 9.0375 7.27698e-15 -0.909833 0.678379 -1.65974
96 1 63.55 10.845 9.0375 1.8075 0.0729983 0.125775 -1.44821
131 1 63.55 9.0375 10.845 1.8075 -1.59966 0.881359 0.601878
133 1 63.55 10.845 10.845 7.40114e-15 -0.822697 1.5969 -0.926569
94 1 63.55 12.6525 9.0375 7.29538e-15 -0.982091 0.0988699 0.68458
100 1 63.55 14.46 9.0375 1.8075 0.309413 -1.00497 -0.236161
135 1 63.55 12.6525 10.845 1.8075 -1.67936 0.18576 0.943988
137 1 63.55 14.46 10.845 7.30917e-15 1.48126 -1.61063 -0.368586
98 1 63.55 16.2675 9.0375 7.27928e-15 -1.06184 -1.44857 0.851875
139 1 63.55 16.2675 10.845 1.8075 -0.483563 -0.28881 1.68571
102 1 63.55 19.8825 9.0375 7.30917e-15 0.674979 0.901852 1.67494
104 1 63.55 18.075 9.0375 1.8075 0.906544 1.5108 1.70087
108 1 63.55 21.69 9.0375 1.8075 -1.248 1.43303 -1.35552
141 1 63.55 18.075 10.845 7.35056e-15 0.663987 -0.0195845 0.562458
143 1 63.55 19.8825 10.845 1.8075 1.59945 1.06129 0.493409
145 1 63.55 21.69 10.845 7.31377e-15 0.120157 -1.48941 1.1861
106 1 63.55 23.4975 9.0375 7.29998e-15 -0.32354 1.36575 -1.61848
112 1 63.55 25.305 9.0375 1.8075 0.216704 1.52232 0.953626
147 1 63.55 23.4975 10.845 1.8075 1.25607 0.86819 1.22696
149 1 63.55 25.305 10.845 7.35516e-15 -0.580564 -0.528368 -1.47756
110 1 63.55 27.1125 9.0375 7.28848e-15 -0.579244 0.839086 1.09096
116 1 63.55 28.92 9.0375 1.8075 1.65094 -0.663481 -0.651027
151 1 63.55 27.1125 10.845 1.8075 1.61613 0.487926 -1.45069
153 1 63.55 28.92 10.845 7.29308e-15 -1.22249 0.104939 -1.36382
114 1 63.55 30.7275 9.0375 7.28388e-15 0.599952 -1.12575 -1.23689
155 1 63.55 30.7275 10.845 1.8075 -0.279808 1.11172 -1.73037
118 1 63.55 34.3425 9.0375 7.37815e-15 -0.221863 0.441402 0.418654
120 1 63.55 32.535 9.0375 1.8075 -0.24213 -0.30489 -1.52673
157 1 63.55 32.535 10.845 7.36838e-15 -1.48446 -1.57206 -0.607951
159 1 63.55 34.3425 10.845 1.8075 -1.41123 1.41434 0.144978
122 1 63.55 1.8075 12.6525 7.37211e-15 0.266253 -1.53852 1.13985
124 1 63.55 0 12.6525 1.8075 1.31219 0.770667 -0.859969
128 1 63.55 3.615 12.6525 1.8075 -1.17379 0.251518 -0.228302
161 1 63.55 0 14.46 7.28446e-15 -0.673503 1.59167 1.20086
163 1 63.55 1.8075 14.46 1.8075 0.376675 -1.15529 1.6455
165 1 63.55 3.615 14.46 7.32297e-15 0.52298 -1.16492 -0.602059
126 1 63.55 5.4225 12.6525 7.36205e-15 -0.695138 -1.33269 -0.692849
132 1 63.55 7.23 12.6525 1.8075 -0.72628 -1.04724 0.397788
167 1 63.55 5.4225 14.46 1.8075 -0.607953 0.408062 -1.54576
169 1 63.55 7.23 14.46 7.28158e-15 -0.240693 -0.431817 1.61362
130 1 63.55 9.0375 12.6525 7.30917e-15 0.264845 -0.91669 -0.861224
136 1 63.55 10.845 12.6525 1.8075 -1.14735 0.633435 -0.95844
171 1 63.55 9.0375 14.46 1.8075 -0.182507 -0.537421 -1.01831
173 1 63.55 10.845 14.46 7.29998e-15 -0.611897 0.0187233 -0.681939
134 1 63.55 12.6525 12.6525 7.30687e-15 -0.440248 -0.61142 0.354403
140 1 63.55 14.46 12.6525 1.8075 0.291182 1.26003 0.820283
175 1 63.55 12.6525 14.46 1.8075 0.530544 1.12085 -0.883458
177 1 63.55 14.46 14.46 7.15743e-15 -1.7111 0.752649 1.51569
138 1 63.55 16.2675 12.6525 7.25859e-15 -0.416532 -0.859738 -0.897476
179 1 63.55 16.2675 14.46 1.8075 -1.41813 -0.172983 -0.739707
142 1 63.55 19.8825 12.6525 7.31147e-15 -0.831373 1.4354 0.327566
144 1 63.55 18.075 12.6525 1.8075 0.510147 1.64872 -0.508462
148 1 63.55 21.69 12.6525 1.8075 -0.180648 -0.499244 -0.99942
181 1 63.55 18.075 14.46 7.231e-15 -1.39418 0.0238721 -0.850315
183 1 63.55 19.8825 14.46 1.8075 0.813347 -0.700398 -0.314281
185 1 63.55 21.69 14.46 7.15283e-15 1.56391 0.199873 -1.17202
146 1 63.55 23.4975 12.6525 7.29768e-15 -0.127544 0.686503 -0.374678
152 1 63.55 25.305 12.6525 1.8075 -0.0547962 -0.905524 -0.474081
187 1 63.55 23.4975 14.46 1.8075 1.36079 -0.909583 0.664837
189 1 63.55 25.305 14.46 7.2448e-15 1.2017 -0.738469 1.45246
150 1 63.55 27.1125 12.6525 7.25859e-15 -0.807619 -1.63024 -0.422737
156 1 63.55 28.92 12.6525 1.8075 -1.36697 -0.374518 0.481116
191 1 63.55 27.1125 14.46 1.8075 -1.38701 -0.821423 1.44765
193 1 63.55 28.92 14.46 7.15283e-15 0.850765 0.444086 0.44723
154 1 63.55 30.7275 12.6525 7.25859e-15 -0.246945 -1.46446 0.86645
195 1 63.55 30.7275 14.46 1.8075 1.68747 -0.514949 -1.3714
158 1 63.55 34.3425 12.6525 7.35286e-15 -0.323302 -1.5611 -0.344089
160 1 63.55 32.535 12.6525 1.8075 -1.26837 -1.03086 1.62498
197 1 63.55 32.535 14.46 7.23632e-15 1.43505 -1.43559 0.535122
199 1 63.55 34.3425 14.46 1.8075 1.57533 1.41608 1.52192
162 1 63.55 1.8075 16.2675 7.33382e-15 1.59959 -0.173516 0.704089
164 1 63.55 0 16.2675 1.8075 0.747242 1.5559 0.0338598
168 1 63.55 3.615 16.2675 1.8075 0.856862 -1.14168 1.45704
166 1 63.55 5.4225 16.2675 7.33216e-15 1.59772 -0.312232 -0.063813
172 1 63.55 7.23 16.2675 1.8075 1.07796 0.480383 0.0820791
170 1 63.55 9.0375 16.2675 7.27698e-15 -1.00158 -1.39212 -0.664278
176 1 63.55 10.845 16.2675 1.8075 -0.721107 -0.80754 -1.05376
174 1 63.55 12.6525 16.2675 7.25629e-15 1.24745 1.57647 -0.99791
180 1 63.55 14.46 16.2675 1.8075 1.44115 0.487956 -0.953039
178 1 63.55 16.2675 16.2675 7.15283e-15 0.625453 0.889868 1.41735
182 1 63.55 19.8825 16.2675 7.2333e-15 1.39436 1.48432 0.425743
184 1 63.55 18.075 16.2675 1.8075 0.16096 1.04154 1.4557
188 1 63.55 21.69 16.2675 1.8075 -0.378505 0.105776 -1.15986
186 1 63.55 23.4975 16.2675 7.2287e-15 1.47324 -1.09155 1.27368
192 1 63.55 25.305 16.2675 1.8075 1.50478 -1.68835 0.936265
190 1 63.55 27.1125 16.2675 7.16662e-15 -0.908617 0.302742 0.583886
196 1 63.55 28.92 16.2675 1.8075 0.747838 1.17278 1.4526
194 1 63.55 30.7275 16.2675 7.15053e-15 1.25452 -0.89805 0.285062
198 1 63.55 34.3425 16.2675 7.27698e-15 0.995603 0.060701 0.795575
200 1 63.55 32.535 16.2675 1.8075 1.27876 0.802623 -1.33115
201 1 63.55 0 18.075 7.39079e-15 0.810053 -0.57096 0.602111
202 1 63.55 1.8075 19.8825 7.39539e-15 -0.27728 -1.47765 1.02925
203 1 63.55 1.8075 18.075 1.8075 -0.49742 -0.817418 -0.597178
204 1 63.55 0 19.8825 1.8075 0.405259 0.642729 -0.821979
205 1 63.55 3.615 18.075 7.38275e-15 -0.967414 0.540601 -0.534381
208 1 63.55 3.615 19.8825 1.8075 -1.70102 0.310802 0.796402
241 1 63.55 0 21.69 7.30802e-15 0.632048 0.742306 1.09832
243 1 63.55 1.8075 21.69 1.8075 -1.54036 -1.18853 1.44942
245 1 63.55 3.615 21.69 7.31147e-15 -0.446736 1.31995 -1.40623
206 1 63.55 5.4225 19.8825 7.40344e-15 1.50209 1.58417 0.137028
207 1 63.55 5.4225 18.075 1.8075 0.383236 1.59177 -0.494332
209 1 63.55 7.23 18.075 7.30917e-15 1.61117 0.280716 1.48711
212 1 63.55 7.23 19.8825 1.8075 -1.00252 0.0831459 -0.00614161
247 1 63.55 5.4225 21.69 1.8075 0.30748 1.19347 -1.17086
249 1 63.55 7.23 21.69 7.2356e-15 1.44239 0.624677 0.969044
210 1 63.55 9.0375 19.8825 7.32527e-15 -1.18348 0.311611 0.519278
211 1 63.55 9.0375 18.075 1.8075 -1.71157 -0.202761 1.67449
213 1 63.55 10.845 18.075 7.36895e-15 1.04904 -0.127693 0.917722
216 1 63.55 10.845 19.8825 1.8075 -1.04406 -0.883458 -0.710691
251 1 63.55 9.0375 21.69 1.8075 -0.169552 -1.28586 -0.929438
253 1 63.55 10.845 21.69 7.28388e-15 0.675403 1.09158 -0.389504
214 1 63.55 12.6525 19.8825 7.29078e-15 1.32491 -0.504052 1.43474
215 1 63.55 12.6525 18.075 1.8075 -0.39915 -0.0439499 0.30017
217 1 63.55 14.46 18.075 7.2379e-15 0.0879751 -1.33639 -0.475022
220 1 63.55 14.46 19.8825 1.8075 0.321238 0.0574829 -1.26853
255 1 63.55 12.6525 21.69 1.8075 -0.241629 1.18258 -0.285339
257 1 63.55 14.46 21.69 7.15283e-15 1.39896 -0.999189 -0.149322
218 1 63.55 16.2675 19.8825 7.2287e-15 0.300923 -1.49806 1.40705
219 1 63.55 16.2675 18.075 1.8075 -1.06727 0.919242 -0.850998
259 1 63.55 16.2675 21.69 1.8075 -1.07107 -0.608737 0.356623
221 1 63.55 18.075 18.075 7.28158e-15 -0.92607 -1.70678 -0.268275
222 1 63.55 19.8825 19.8825 7.28158e-15 -0.016575 -0.137129 -1.60217
223 1 63.55 19.8825 18.075 1.8075 -0.393929 0.994169 -0.513097
224 1 63.55 18.075 19.8825 1.8075 -1.47968 -1.05617 -0.528689
225 1 63.55 21.69 18.075 7.24709e-15 0.0593436 -0.468443 -0.086132
228 1 63.55 21.69 19.8825 1.8075 -0.563483 -1.32123 1.22938
261 1 63.55 18.075 21.69 7.24709e-15 -0.317119 -1.69004 0.305599
263 1 63.55 19.8825 21.69 1.8075 -0.567444 1.48609 -1.04216
265 1 63.55 21.69 21.69 7.15283e-15 1.64315 0.258264 -1.29467
226 1 63.55 23.4975 19.8825 7.28848e-15 -1.15885 1.58203 -1.2699
227 1 63.55 23.4975 18.075 1.8075 0.246961 0.238468 -1.05844
229 1 63.55 25.305 18.075 7.29078e-15 -1.04991 1.2316 1.62517
232 1 63.55 25.305 19.8825 1.8075 -0.0690251 -0.745578 -0.109133
267 1 63.55 23.4975 21.69 1.8075 1.0334 0.623142 -0.555675
269 1 63.55 25.305 21.69 7.25399e-15 1.41064 1.07897 -0.605177
230 1 63.55 27.1125 19.8825 7.24709e-15 -0.974202 0.905613 -1.00813
231 1 63.55 27.1125 18.075 1.8075 -1.25423 0.772502 -1.2303
233 1 63.55 28.92 18.075 7.2356e-15 0.703861 0.77532 1.05191
236 1 63.55 28.92 19.8825 1.8075 -1.6853 0.94531 0.277778
271 1 63.55 27.1125 21.69 1.8075 -0.442502 -0.337466 -1.06072
273 1 63.55 28.92 21.69 7.14823e-15 1.36323 -1.52378 -0.862352
234 1 63.55 30.7275 19.8825 7.2264e-15 -1.20742 0.196132 -1.62344
235 1 63.55 30.7275 18.075 1.8075 -0.607836 -1.08434 1.11482
275 1 63.55 30.7275 21.69 1.8075 0.143303 -0.913667 1.39883
237 1 63.55 32.535 18.075 7.29689e-15 0.654558 1.04098 -1.01664
238 1 63.55 34.3425 19.8825 7.35056e-15 1.30365 -0.592393 1.06886
239 1 63.55 34.3425 18.075 1.8075 -0.74734 -1.23623 0.849306
240 1 63.55 32.535 19.8825 1.8075 -0.566388 -1.57704 -1.18445
277 1 63.55 32.535 21.69 7.24609e-15 -0.19928 -1.5147 -0.776265
279 1 63.55 34.3425 21.69 1.8075 -1.69836 -0.0663871 1.23141
242 1 63.55 1.8075 23.4975 7.3724e-15 -1.45231 1.1343 -0.308398
244 1 63.55 0 23.4975 1.8075 0.0292814 0.6324 -1.0219
248 1 63.55 3.615 23.4975 1.8075 0.0619525 -1.70678 -0.233314
281 1 63.55 0 25.305 7.3632e-15 1.30861 -0.469354 -1.51755
283 1 63.55 1.8075 25.305 1.8075 -0.0510798 -0.871731 -1.3077
285 1 63.55 3.615 25.305 7.39884e-15 1.69222 -0.482482 -0.210083
246 1 63.55 5.4225 23.4975 7.40574e-15 1.3741 0.853165 -1.57757
252 1 63.55 7.23 23.4975 1.8075 -0.111722 -0.439701 0.896635
287 1 63.55 5.4225 25.305 1.8075 -0.612358 -0.798364 0.574776
289 1 63.55 7.23 25.305 7.30228e-15 -1.10858 0.262203 -0.978863
250 1 63.55 9.0375 23.4975 7.32527e-15 0.314282 1.06156 1.54516
256 1 63.55 10.845 23.4975 1.8075 1.03765 -0.841664 1.14987
291 1 63.55 9.0375 25.305 1.8075 -0.903931 -0.704518 -0.179558
293 1 63.55 10.845 25.305 7.36665e-15 -1.34597 -1.20381 1.27772
254 1 63.55 12.6525 23.4975 7.30917e-15 -1.69382 -0.0554134 -1.61557
260 1 63.55 14.46 23.4975 1.8075 0.95866 -0.0373352 0.491709
295 1 63.55 12.6525 25.305 1.8075 1.19211 0.973786 0.265094
297 1 63.55 14.46 25.305 7.24709e-15 -0.546574 -1.51511 -0.688284
258 1 63.55 16.2675 23.4975 7.2287e-15 1.54519 1.23546 0.480315
299 1 63.55 16.2675 25.305 1.8075 -1.13594 1.67636 -0.821388
262 1 63.55 19.8825 23.4975 7.28848e-15 0.0375417 0.73566 0.374692
264 1 63.55 18.075 23.4975 1.8075 -0.921676 -0.683468 -0.148078
268 1 63.55 21.69 23.4975 1.8075 0.84026 0.766077 -1.69987
301 1 63.55 18.075 25.305 7.28158e-15 -0.396564 -1.67543 -0.517495
303 1 63.55 19.8825 25.305 1.8075 -1.24882 1.58766 -0.217867
305 1 63.55 21.69 25.305 7.24939e-15 -0.915428 0.281205 -0.686299
266 1 63.55 23.4975 23.4975 7.28388e-15 0.131745 -0.958739 -0.0756838
272 1 63.55 25.305 23.4975 1.8075 -0.756314 0.539906 1.65049
307 1 63.55 23.4975 25.305 1.8075 0.366607 -0.427029 -1.14939
309 1 63.55 25.305 25.305 7.28388e-15 -1.59374 -0.21094 -0.541423
270 1 63.55 27.1125 23.4975 7.2425e-15 1.217 -0.349328 0.735406
276 1 63.55 28.92 23.4975 1.8075 -0.50812 -0.310251 -1.45069
311 1 63.55 27.1125 25.305 1.8075 -1.4104 1.54993 0.401649
313 1 63.55 28.92 25.305 7.2356e-15 0.0498009 -1.31505 0.971952
274 1 63.55 30.7275 23.4975 7.2287e-15 0.245679 -0.51229 1.70902
315 1 63.55 30.7275 25.305 1.8075 -1.16102 -0.310634 -0.950867
278 1 63.55 34.3425 23.4975 7.35516e-15 0.876969 0.382378 0.301781
280 1 63.55 32.535 23.4975 1.8075 -1.56403 -0.2116 -1.22176
317 1 63.55 32.535 25.305 7.31004e-15 0.320178 -0.414517 1.05115
319 1 63.55 34.3425 25.305 1.8075 -0.227523 -1.05486 0.600936
282 1 63.55 1.8075 27.1125 7.31607e-15 -0.0768184 0.0643366 -0.529727
284 1 63.55 0 27.1125 1.8075 -0.340071 0.988902 1.13875
288 1 63.55 3.615 27.1125 1.8075 1.57803 -1.72363 0.983816
321 1 63.55 0 28.92 7.26664e-15 -0.0620612 -1.62222 -0.946239
323 1 63.55 1.8075 28.92 1.8075 -1.06587 0.0633531 0.281828
325 1 63.55 3.615 28.92 7.34136e-15 0.817385 1.27045 -1.00738
286 1 63.55 5.4225 27.1125 7.34826e-15 -0.0167537 0.327244 -0.316597
292 1 63.55 7.23 27.1125 1.8075 -0.285255 -0.256459 0.895689
327 1 63.55 5.4225 28.92 1.8075 -0.396946 -1.16355 1.50793
329 1 63.55 7.23 28.92 7.25399e-15 -1.29007 -1.52026 -0.676037
290 1 63.55 9.0375 27.1125 7.28388e-15 1.57126 -1.12326 -1.0015
296 1 63.55 10.845 27.1125 1.8075 -0.960816 0.451967 1.11839
331 1 63.55 9.0375 28.92 1.8075 0.394605 -1.54251 -0.00548128
333 1 63.55 10.845 28.92 7.29078e-15 0.129737 -0.023144 -0.301464
294 1 63.55 12.6525 27.1125 7.25629e-15 -0.123416 0.701205 0.472195
300 1 63.55 14.46 27.1125 1.8075 -1.43359 0.205712 -0.150469
335 1 63.55 12.6525 28.92 1.8075 1.34359 1.35328 0.43484
337 1 63.55 14.46 28.92 7.15283e-15 0.672538 1.49192 -0.0478876
298 1 63.55 16.2675 27.1125 7.15283e-15 -1.34835 0.379546 1.26755
339 1 63.55 16.2675 28.92 1.8075 -0.305738 -1.16715 -0.0168255
302 1 63.55 19.8825 27.1125 7.24939e-15 0.906946 1.32041 -0.554974
304 1 63.55 18.075 27.1125 1.8075 0.940603 1.68675 0.482594
308 1 63.55 21.69 27.1125 1.8075 0.272597 1.04202 -0.868652
341 1 63.55 18.075 28.92 7.2218e-15 -0.682912 -0.46649 1.52587
343 1 63.55 19.8825 28.92 1.8075 -1.62495 -1.02705 -0.137683
345 1 63.55 21.69 28.92 7.15283e-15 -0.748507 -0.0470802 -0.287795
306 1 63.55 23.4975 27.1125 7.2448e-15 0.797477 -0.372507 -0.39908
312 1 63.55 25.305 27.1125 1.8075 1.64325 -1.62294 0.85512
347 1 63.55 23.4975 28.92 1.8075 0.459698 0.00395015 0.736142
349 1 63.55 25.305 28.92 7.2356e-15 1.17591 -0.668871 -1.06183
310 1 63.55 27.1125 27.1125 7.15283e-15 1.05915 -0.0396471 -0.215325
316 1 63.55 28.92 27.1125 1.8075 0.429232 1.25547 0.530954
351 1 63.55 27.1125 28.92 1.8075 1.38363 1.48843 0.301145
353 1 63.55 28.92 28.92 7.15283e-15 -1.36089 1.30688 0.905288
314 1 63.55 30.7275 27.1125 7.16662e-15 0.640616 -0.911269 0.0803956
355 1 63.55 30.7275 28.92 1.8075 -1.66577 -0.400458 1.50027
318 1 63.55 34.3425 27.1125 7.28733e-15 -0.130873 0.227338 -0.834935
320 1 63.55 32.535 27.1125 1.8075 0.775502 1.38807 -1.05366
357 1 63.55 32.535 28.92 7.21792e-15 -0.923673 0.436486 1.02957
359 1 63.55 34.3425 28.92 1.8075 1.22742 1.45632 1.53588
322 1 63.55 1.8075 30.7275 7.32002e-15 -1.55443 1.61116 -0.568376
324 1 63.55 0 30.7275 1.8075 -0.648414 0.147081 -0.596328
328 1 63.55 3.615 30.7275 1.8075 -1.56414 1.38137 0.791071
326 1 63.55 5.4225 30.7275 7.33216e-15 0.963773 -0.809786 -0.656655
332 1 63.55 7.23 30.7275 1.8075 -1.72555 0.739533 -0.417873
330 1 63.55 9.0375 30.7275 7.26779e-15 -0.126575 -0.366953 -0.695609
336 1 63.55 10.845 30.7275 1.8075 1.10749 0.75336 -0.408761
334 1 63.55 12.6525 30.7275 7.25629e-15 0.548934 1.52846 0.159165
340 1 63.55 14.46 30.7275 1.8075 -1.63697 1.58827 -0.404301
338 1 63.55 16.2675 30.7275 7.15053e-15 -0.00124479 0.871315 1.72529
342 1 63.55 19.8825 30.7275 7.2333e-15 1.71794 1.68462 -0.711206
344 1 63.55 18.075 30.7275 1.8075 -0.533135 -1.07669 1.4015
348 1 63.55 21.69 30.7275 1.8075 1.52432 0.678991 1.69216
346 1 63.55 23.4975 30.7275 7.2287e-15 1.37775 -0.245978 0.17005
352 1 63.55 25.305 30.7275 1.8075 1.48012 0.0454139 0.511044
350 1 63.55 27.1125 30.7275 7.16662e-15 1.34651 -1.66024 1.62036
356 1 63.55 28.92 30.7275 1.8075 1.58032 -1.45974 0.391798
354 1 63.55 30.7275 30.7275 7.15053e-15 0.443379 -0.283435 -1.61752
358 1 63.55 34.3425 30.7275 7.27698e-15 1.40614 1.68969 1.34528
360 1 63.55 32.535 30.7275 1.8075 -0.0286344 -1.66495 -1.2398
361 1 63.55 0 32.535 7.39252e-15 -0.134257 -1.15 0.339159
362 1 63.55 1.8075 34.3425 7.40667e-15 -1.22985 1.32954 0.261595
363 1 63.55 1.8075 32.535 1.8075 -0.808437 -1.5046 -0.957997
364 1 63.55 0 34.3425 1.8075 -1.48408 1.24949 0.53961
365 1 63.55 3.615 32.535 7.38217e-15 0.13476 1.15976 1.12141
368 1 63.55 3.615 34.3425 1.8075 -1.64465 0.838711 -1.73612
366 1 63.55 5.4225 34.3425 7.41609e-15 1.63916 -0.945402 -1.35055
367 1 63.55 5.4225 32.535 1.8075 0.816184 -1.57909 -0.969562
369 1 63.55 7.23 32.535 7.30946e-15 -0.861242 -1.15189 -0.167376
372 1 63.55 7.23 34.3425 1.8075 -1.08672 -0.0191344 1.19144
370 1 63.55 9.0375 34.3425 7.3816e-15 -0.15464 -0.375505 1.24251
371 1 63.55 9.0375 32.535 1.8075 1.10259 1.67113 1.54118
373 1 63.55 10.845 32.535 7.38217e-15 -0.551235 -0.0913053 -1.38531
376 1 63.55 10.845 34.3425 1.8075 1.2145 -0.754822 0.59756
374 1 63.55 12.6525 34.3425 7.36895e-15 -0.649167 1.35766 1.2855
375 1 63.55 12.6525 32.535 1.8075 -1.24122 1.00689 -1.65552
377 1 63.55 14.46 32.535 7.23862e-15 -0.460234 -0.0991881 1.38781
380 1 63.55 14.46 34.3425 1.8075 -0.646735 0.613964 1.26077
378 1 63.55 16.2675 34.3425 7.26721e-15 1.55149 -0.412396 -1.45478
379 1 63.55 16.2675 32.535 1.8075 0.518536 0.448664 1.09404
381 1 63.55 18.075 32.535 7.2823e-15 -0.592729 -0.373408 -1.67388
382 1 63.55 19.8825 34.3425 7.36895e-15 1.35513 0.977958 1.01712
383 1 63.55 19.8825 32.535 1.8075 0.206786 1.30004 0.433878
384 1 63.55 18.075 34.3425 1.8075 -1.19895 0.504727 -0.0146845
385 1 63.55 21.69 32.535 7.23905e-15 -0.336307 -1.64113 0.273272
388 1 63.55 21.69 34.3425 1.8075 0.586035 0.807712 0.950052
386 1 63.55 23.4975 34.3425 7.36723e-15 1.21552 -0.853972 -1.09138
387 1 63.55 23.4975 32.535 1.8075 0.661821 1.72595 0.261266
389 1 63.55 25.305 32.535 7.29394e-15 0.19891 0.720949 -0.622203
392 1 63.55 25.305 34.3425 1.8075 1.31336 -0.389332 1.21904
390 1 63.55 27.1125 34.3425 7.27354e-15 -0.535925 0.580669 0.0609342
391 1 63.55 27.1125 32.535 1.8075 1.23009 1.18349 1.14822
393 1 63.55 28.92 32.535 7.23632e-15 -1.46387 1.14375 -0.883206
396 1 63.55 28.92 34.3425 1.8075 -0.931049 1.31607 -0.732829
394 1 63.55 30.7275 34.3425 7.26721e-15 0.0396346 1.22965 0.0185991
395 1 63.55 30.7275 32.535 1.8075 0.683871 1.2229 0.965049
397 1 63.55 32.535 32.535 7.29286e-15 -0.88685 -1.47816 -0.494269
398 1 63.55 34.3425 34.3425 7.46667e-15 -0.636562 1.64918 0.166285
399 1 63.55 34.3425 32.535 1.8075 -0.387987 0.280654 0.458621
400 1 63.55 32.535 34.3425 1.8075 -1.52451 1.55578 1.5176
401 1 63.55 0 0 3.615 1.4674 1.24511 -0.293893
402 1 63.55 1.8075 1.8075 3.615 -0.527333 -0.68025 -1.5617
403 1 63.55 1.8075 0 5.4225 0.0875919 -0.841287 0.543401
404 1 63.55 0 1.8075 5.4225 1.42257 0.48503 -1.58267
405 1 63.55 3.615 0 3.615 1.26103 1.02434 0.291767
408 1 63.55 3.615 1.8075 5.4225 0.792326 -0.255323 -0.824385
441 1 63.55 0 3.615 3.615 -1.45117 -0.50272 -0.466681
443 1 63.55 1.8075 3.615 5.4225 0.803104 0.551682 -1.5886
445 1 63.55 3.615 3.615 3.615 0.842313 0.582488 -0.591714
406 1 63.55 5.4225 1.8075 3.615 -0.0702634 -0.7484 1.0066
407 1 63.55 5.4225 0 5.4225 0.386328 1.54491 -0.855304
409 1 63.55 7.23 0 3.615 0.21031 1.56844 -0.735119
412 1 63.55 7.23 1.8075 5.4225 -0.535844 -1.516 1.70103
447 1 63.55 5.4225 3.615 5.4225 1.63016 0.350487 -1.58319
449 1 63.55 7.23 3.615 3.615 1.28151 -1.6658 -1.65757
410 1 63.55 9.0375 1.8075 3.615 -1.2253 1.42262 0.542255
411 1 63.55 9.0375 0 5.4225 -0.50534 1.3346 -1.33639
413 1 63.55 10.845 0 3.615 1.16532 1.64308 -1.64111
416 1 63.55 10.845 1.8075 5.4225 -1.38279 0.702394 -0.34843
451 1 63.55 9.0375 3.615 5.4225 0.760124 -0.433185 -0.562874
453 1 63.55 10.845 3.615 3.615 -0.470556 -0.169803 0.680826
414 1 63.55 12.6525 1.8075 3.615 0.580623 0.0178779 -1.01698
415 1 63.55 12.6525 0 5.4225 -0.880896 1.48134 -0.964801
417 1 63.55 14.46 0 3.615 -1.52552 -1.47858 -0.743979
420 1 63.55 14.46 1.8075 5.4225 -0.547631 1.53407 0.805135
455 1 63.55 12.6525 3.615 5.4225 0.209134 -0.847839 1.40502
457 1 63.55 14.46 3.615 3.615 -0.877617 1.09019 0.590403
418 1 63.55 16.2675 1.8075 3.615 -0.994687 -0.0385489 0.902144
419 1 63.55 16.2675 0 5.4225 -0.370771 -1.69186 0.895737
459 1 63.55 16.2675 3.615 5.4225 -0.173342 0.911452 0.0212916
421 1 63.55 18.075 0 3.615 -0.755737 -0.165889 0.567877
422 1 63.55 19.8825 1.8075 3.615 0.0692867 0.172816 -1.58731
423 1 63.55 19.8825 0 5.4225 -0.310685 -1.06327 1.3762
424 1 63.55 18.075 1.8075 5.4225 0.676865 1.38054 0.746194
425 1 63.55 21.69 0 3.615 0.531706 -0.15565 -0.747284
428 1 63.55 21.69 1.8075 5.4225 1.20083 -1.57414 -0.963619
461 1 63.55 18.075 3.615 3.615 1.21989 -0.256046 0.900892
463 1 63.55 19.8825 3.615 5.4225 -0.720773 1.34072 0.805355
465 1 63.55 21.69 3.615 3.615 -0.772517 -1.2677 -0.908127
426 1 63.55 23.4975 1.8075 3.615 -1.06269 1.55112 -0.483306
427 1 63.55 23.4975 0 5.4225 -0.188451 0.139884 -0.156771
429 1 63.55 25.305 0 3.615 1.13071 -0.853854 0.893911
432 1 63.55 25.305 1.8075 5.4225 -0.341239 -1.29608 0.671787
467 1 63.55 23.4975 3.615 5.4225 0.043034 -0.595899 1.10001
469 1 63.55 25.305 3.615 3.615 1.02429 0.0957308 -0.0525104
430 1 63.55 27.1125 1.8075 3.615 -0.0132184 0.785617 0.709699
431 1 63.55 27.1125 0 5.4225 1.03174 0.439553 0.569503
433 1 63.55 28.92 0 3.615 -1.48812 -0.69261 -1.20017
436 1 63.55 28.92 1.8075 5.4225 1.68558 -1.1395 -0.0405925
471 1 63.55 27.1125 3.615 5.4225 0.364251 1.59871 1.62495
473 1 63.55 28.92 3.615 3.615 1.31864 1.56371 -0.481305
434 1 63.55 30.7275 1.8075 3.615 -0.0228444 -1.46118 0.460964
435 1 63.55 30.7275 0 5.4225 -0.292062 -0.205387 -0.847615
475 1 63.55 30.7275 3.615 5.4225 1.59698 1.17117 -1.35084
437 1 63.55 32.535 0 3.615 1.22102 1.42269 1.72682
438 1 63.55 34.3425 1.8075 3.615 1.02279 -0.843886 -1.50839
439 1 63.55 34.3425 0 5.4225 1.18094 0.557464 -1.51018
440 1 63.55 32.535 1.8075 5.4225 -1.14065 -1.22009 1.59357
477 1 63.55 32.535 3.615 3.615 0.270994 -1.62277 0.176939
479 1 63.55 34.3425 3.615 5.4225 0.913907 0.395699 -1.23054
442 1 63.55 1.8075 5.4225 3.615 -1.70814 -1.57339 1.27613
444 1 63.55 0 5.4225 5.4225 -1.31018 0.274278 0.809563
448 1 63.55 3.615 5.4225 5.4225 -0.462155 -1.16786 -1.51705
481 1 63.55 0 7.23 3.615 -1.61166 0.457972 1.45348
483 1 63.55 1.8075 7.23 5.4225 0.225971 1.20247 0.995957
485 1 63.55 3.615 7.23 3.615 -0.156866 0.369875 1.72901
446 1 63.55 5.4225 5.4225 3.615 -1.41545 -0.166555 -0.222985
452 1 63.55 7.23 5.4225 5.4225 1.23226 -0.42575 -0.453814
487 1 63.55 5.4225 7.23 5.4225 1.0186 1.53771 -0.36887
489 1 63.55 7.23 7.23 3.615 0.685982 -1.44955 1.6688
450 1 63.55 9.0375 5.4225 3.615 1.45815 -1.54 0.491567
456 1 63.55 10.845 5.4225 5.4225 -0.462114 -0.489305 -0.430933
491 1 63.55 9.0375 7.23 5.4225 -0.309147 0.504032 -1.29038
493 1 63.55 10.845 7.23 3.615 0.0638441 -1.12845 -1.59482
454 1 63.55 12.6525 5.4225 3.615 1.30341 -1.25224 -1.22512
460 1 63.55 14.46 5.4225 5.4225 0.850363 0.624028 0.476324
495 1 63.55 12.6525 7.23 5.4225 1.11673 0.0641469 -0.249277
497 1 63.55 14.46 7.23 3.615 0.64098 1.73178 1.25399