ITEM: TIMESTEP
600
ITEM: NUMBER OF ATOMS
4000
ITEM: BOX BOUNDS pp pp pp
0.0000000000000000e+00 3.5200000000000003e+01
0.0000000000000000e+00 3.5200000000000003e+01
0.0000000000000000e+00 3.5200000000000003e+01
ITEM: ATOMS id type element mass x y z c_1[1] c_1[2]
1000 1 Ni 58.71 31.6313 15.7622 15.8987 1000 0.0827408
2837 1 Ni 58.71 31.6514 17.5818 14.1081 2837 -0.155663
996 1 Ni 58.71 28.2137 15.7234 15.849 996 0.140292
4 1 Ni 58.71 0.0661943 1.80288 1.74998 0 0
992 1 Ni 58.71 24.5884 15.7329 15.8539 992 0.0748131
2431 1 Ni 58.71 26.4146 17.5592 8.75288 2431 0.0624318
988 1 Ni 58.71 21.0358 15.851 15.7035 988 -0.0432567
8 1 Ni 58.71 3.5513 1.82119 1.77183 0 0
984 1 Ni 58.71 17.5138 15.8767 15.849 984 0.555944
12 1 Ni 58.71 7.11034 1.68991 1.69822 0 0
19 1 Ni 58.71 15.8223 0.0663744 1.68508 0 0
980 1 Ni 58.71 14.021 15.8239 15.9187 0 0
976 1 Ni 58.71 10.4758 15.8676 15.7698 0 0
16 1 Ni 58.71 10.5325 1.72337 1.77479 0 0
65 1 Ni 58.71 21.1332 3.57403 0.0167098 65 0.48191
972 1 Ni 58.71 6.90601 15.867 15.8051 0 0
221 1 Ni 58.71 17.5191 0.0485537 3.56848 221 0.25111
122 1 Ni 58.71 1.79914 12.2648 0.0768255 0 0
968 1 Ni 58.71 3.56929 15.8979 15.7628 0 0
20 1 Ni 58.71 14.0975 1.78029 1.75214 0 0
964 1 Ni 58.71 35.1489 15.8443 15.9828 0 0
24 1 Ni 58.71 17.6213 1.77184 1.84002 24 -0.469375
2435 1 Ni 58.71 29.784 17.6056 8.81584 2435 0.33748
999 1 Ni 58.71 33.3422 13.973 15.8529 999 0.985263
995 1 Ni 58.71 29.9803 14.0018 15.8917 995 -0.211877
28 1 Ni 58.71 21.1962 1.75534 1.73952 28 -0.135671
1114 1 Ni 58.71 29.9753 8.78081 17.5899 1114 -0.385977
23 1 Ni 58.71 19.3592 0.0694434 1.83159 23 0.0154708
2405 1 Ni 58.71 3.46851 17.5335 7.06265 0 0
421 1 Ni 58.71 17.486 0.065791 7.01762 421 1.15717
960 1 Ni 58.71 31.742 12.2995 15.8687 960 -1.02943
32 1 Ni 58.71 24.6283 1.7571 1.86986 32 0.313073
956 1 Ni 58.71 28.1113 12.4361 15.8446 956 -0.0494285
36 1 Ni 58.71 28.2786 1.78758 1.81346 36 -0.541025
54 1 Ni 58.71 12.3381 5.08399 0.0492279 0 0
2639 1 Ni 58.71 33.3766 17.5962 12.3638 2639 0.317957
1182 1 Ni 58.71 19.2938 15.8791 17.5658 1182 0.19322
40 1 Ni 58.71 31.7417 1.75643 1.81578 40 -0.2272
1190 1 Ni 58.71 26.4916 15.8065 17.4822 1190 -0.867284
2803 1 Ni 58.71 1.75174 17.5631 15.8585 0 0
1070 1 Ni 58.71 26.4023 5.24192 17.5295 1070 -0.380161
69 1 Ni 58.71 24.653 3.33876 0.0850893 69 0.153596
43 1 Ni 58.71 1.75521 3.5606 1.7547 0 0
44 1 Ni 58.71 35.1087 5.28345 1.78319 0 0
635 1 Ni 58.71 29.9076 0.00436563 12.3152 635 -0.047859
821 1 Ni 58.71 17.6961 0.120281 13.9584 821 -0.472962
47 1 Ni 58.71 5.20277 3.60645 1.77706 0 0
48 1 Ni 58.71 3.47703 5.30199 1.65532 0 0
62 1 Ni 58.71 19.4483 5.36229 0.0623 62 -0.100475
52 1 Ni 58.71 7.07649 5.1138 1.70294 0 0
1033 1 Ni 58.71 28.1152 0.134597 17.5725 1033 0.303579
51 1 Ni 58.71 8.82145 3.52268 1.69743 0 0
137 1 Ni 58.71 14.087 10.5448 0.0350386 0 0
56 1 Ni 58.71 10.4625 5.26693 1.68126 0 0
423 1 Ni 58.71 19.3607 0.049656 8.77884 423 0.300893
55 1 Ni 58.71 12.3656 3.40077 1.75611 0 0
130 1 Ni 58.71 8.78062 12.2205 0.0428427 0 0
2637 1 Ni 58.71 31.6021 17.5618 10.6154 2637 0.289084
59 1 Ni 58.71 15.8766 3.60558 1.64777 0 0
60 1 Ni 58.71 14.1153 5.27665 1.63556 0 0
133 1 Ni 58.71 10.4774 10.516 0.0854704 0 0
64 1 Ni 58.71 17.6855 5.31729 1.75343 64 -0.414817
2817 1 Ni 58.71 13.9916 17.4572 14.1232 0 0
63 1 Ni 58.71 19.3891 3.62506 1.73182 63 0.121598
201 1 Ni 58.71 0.00699522 0.0818201 3.48818 0 0
68 1 Ni 58.71 21.2101 5.31881 1.79683 68 -0.420301
2805 1 Ni 58.71 3.45941 17.5475 14.0068 0 0
67 1 Ni 58.71 22.9024 3.55985 1.8299 67 0.233212
2607 1 Ni 58.71 5.25765 17.4716 12.3162 0 0
2413 1 Ni 58.71 10.5387 17.5312 7.0105 0 0
71 1 Ni 58.71 26.4262 3.35617 1.73368 71 0.290632
72 1 Ni 58.71 24.7042 5.36324 1.73998 72 0.308066
2219 1 Ni 58.71 15.8628 17.5852 5.242 0 0
76 1 Ni 58.71 28.2515 5.24671 1.74471 76 -1.17297
1153 1 Ni 58.71 28.1481 10.4481 17.5454 1153 -0.122149
75 1 Ni 58.71 29.9794 3.44839 1.74591 75 0.365875
141 1 Ni 58.71 17.6734 10.5348 0.0446065 141 -0.264572
80 1 Ni 58.71 31.7847 5.2351 1.80377 80 -0.569305
2221 1 Ni 58.71 17.6528 17.5294 3.38764 2221 0.169601
79 1 Ni 58.71 33.463 3.5504 1.70673 79 0.00221983
190 1 Ni 58.71 26.4241 15.8444 0.0568348 190 0.305994
83 1 Ni 58.71 1.75089 7.04661 1.74226 0 0
66 1 Ni 58.71 22.9385 5.30812 0.0371833 66 -0.123896
87 1 Ni 58.71 5.30889 6.92743 1.7083 0 0
2439 1 Ni 58.71 33.3401 17.5276 8.80682 2439 0.11558
91 1 Ni 58.71 8.77725 7.09854 1.72518 0 0
18 1 Ni 58.71 15.8261 1.76887 -0.0334877 0 0
95 1 Ni 58.71 12.3579 7.04863 1.70215 0 0
2609 1 Ni 58.71 6.99423 17.585 10.5726 0 0
99 1 Ni 58.71 15.9279 7.11092 1.66753 0 0
173 1 Ni 58.71 10.621 14.067 0.0572299 0 0
103 1 Ni 58.71 19.3598 7.17614 1.80218 103 0.0490657
1053 1 Ni 58.71 10.4658 3.6246 17.6132 0 0
107 1 Ni 58.71 22.9447 7.07169 1.8252 107 0.0765545
205 1 Ni 58.71 3.4632 0.0263694 3.41216 0 0
111 1 Ni 58.71 26.3781 7.18397 1.72381 111 0.889492
3013 1 Ni 58.71 10.5449 17.5892 17.6266 0 0
115 1 Ni 58.71 29.9196 7.13794 1.79956 115 0.650486
2631 1 Ni 58.71 26.3416 17.5659 12.2935 2631 0.543926
119 1 Ni 58.71 33.5015 7.10322 1.70546 119 -0.80219
225 1 Ni 58.71 21.0965 0.0525365 3.47498 225 0.353019
84 1 Ni 58.71 35.1534 8.85832 1.68554 0 0
97 1 Ni 58.71 14.0957 6.99298 0.0320442 0 0
123 1 Ni 58.71 1.66445 10.6638 1.87191 0 0
209 1 Ni 58.71 7.07326 0.00637845 3.45917 0 0
88 1 Ni 58.71 3.44277 8.79969 1.77436 0 0
223 1 Ni 58.71 19.3673 0.0554214 5.26526 223 -0.751904
127 1 Ni 58.71 5.20902 10.5095 1.73026 0 0
92 1 Ni 58.71 7.04537 8.78998 1.6553 0 0
2605 1 Ni 58.71 3.42472 17.6012 10.5273 0 0
2611 1 Ni 58.71 8.69631 17.5745 12.3342 0 0
96 1 Ni 58.71 10.6147 8.82202 1.73356 0 0
131 1 Ni 58.71 8.70096 10.4343 1.73699 0 0
2633 1 Ni 58.71 28.1906 17.5655 10.5506 2633 -1.12405
74 1 Ni 58.71 29.8755 5.35015 0.0621584 74 1.09735
135 1 Ni 58.71 12.3369 10.4984 1.80586 0 0
2613 1 Ni 58.71 10.5018 17.5154 10.5778 0 0
100 1 Ni 58.71 14.1626 8.74479 1.69248 0 0
2811 1 Ni 58.71 8.7044 17.4624 15.9718 0 0
139 1 Ni 58.71 15.9274 10.604 1.73043 0 0
104 1 Ni 58.71 17.6629 8.85904 1.79608 104 -0.276724
217 1 Ni 58.71 14.0883 0.0177037 3.65417 0 0
1041 1 Ni 58.71 0.0215968 3.52878 17.5373 0 0
108 1 Ni 58.71 21.0981 8.83534 1.76772 108 0.880924
143 1 Ni 58.71 19.4026 10.5506 1.80045 143 0.13966
1146 1 Ni 58.71 22.8293 12.2227 17.6207 1146 0.0867399
134 1 Ni 58.71 12.2975 12.254 0.0941533 0 0
147 1 Ni 58.71 22.9482 10.627 1.92208 147 -0.607812
1054 1 Ni 58.71 12.2471 5.34571 17.5426 0 0
112 1 Ni 58.71 24.7206 8.83619 1.8389 112 -0.580983
1125 1 Ni 58.71 3.4444 10.531 17.5535 0 0
151 1 Ni 58.71 26.485 10.617 1.71618 151 -0.508786
116 1 Ni 58.71 28.2181 8.86825 1.70696 116 0.116648
2819 1 Ni 58.71 15.792 17.549 15.868 0 0
162 1 Ni 58.71 1.82048 15.8958 0.0702234 0 0
120 1 Ni 58.71 31.5681 9.02512 1.77521 120 0.270979
155 1 Ni 58.71 29.8958 10.7679 1.71164 155 -0.63575
7 1 Ni 58.71 5.26521 0.0308281 1.63992 0 0
39 1 Ni 58.71 33.459 0.0449018 1.68602 39 0.416201
159 1 Ni 58.71 33.3845 10.6396 1.76902 159 0.0194409
609 1 Ni 58.71 6.99529 0.0156167 10.4778 0 0
124 1 Ni 58.71 35.1712 12.3469 1.70766 0 0
2407 1 Ni 58.71 5.18642 17.5824 8.83427 0 0
163 1 Ni 58.71 1.80695 14.0442 1.78073 0 0
1113 1 Ni 58.71 28.1291 7.00844 17.5944 1113 0.410276
128 1 Ni 58.71 3.59801 12.2846 1.74905 0 0
2225 1 Ni 58.71 21.1288 17.5604 3.48292 2225 0.452535
167 1 Ni 58.71 5.26968 14.0557 1.8632 0 0
132 1 Ni 58.71 7.02281 12.3029 1.70588 0 0
2831 1 Ni 58.71 26.3282 17.4825 15.8371 2831 0.759805
2417 1 Ni 58.71 14.1404 17.5631 7.01092 0 0
136 1 Ni 58.71 10.5531 12.2423 1.67536 0 0
171 1 Ni 58.71 8.821 14.0026 1.75398 0 0
106 1 Ni 58.71 23.0172 8.77544 0.0447121 106 -1.11111
419 1 Ni 58.71 15.7764 0.0318549 8.77363 0 0
175 1 Ni 58.71 12.2966 14.0206 1.68738 0 0
407 1 Ni 58.71 5.15937 0.124651 8.74715 0 0
140 1 Ni 58.71 14.0794 12.3689 1.74897 0 0
2411 1 Ni 58.71 8.76837 17.5343 8.8629 0 0
179 1 Ni 58.71 15.8923 14.1037 1.68872 0 0
144 1 Ni 58.71 17.6429 12.3742 1.77445 144 0.0893126
231 1 Ni 58.71 26.4174 0.0532392 5.21013 231 -0.562364
1097 1 Ni 58.71 13.9048 7.1304 17.5703 0 0
148 1 Ni 58.71 21.1849 12.3791 1.70303 148 -0.136276
183 1 Ni 58.71 19.4349 14.1653 1.71428 183 -0.358225
2421 1 Ni 58.71 17.5595 17.585 7.05775 2421 0.0597067
2013 1 Ni 58.71 10.579 17.5579 0.0151417 0 0
187 1 Ni 58.71 22.9248 14.0678 1.61103 187 -0.501324
1133 1 Ni 58.71 10.5092 10.5556 17.5091 0 0
152 1 Ni 58.71 24.5979 12.2789 1.79634 152 0.863874
2233 1 Ni 58.71 28.1475 17.5508 3.46046 2233 -0.27671
191 1 Ni 58.71 26.2863 14.0412 1.81585 191 0.95475
156 1 Ni 58.71 28.1116 12.3831 1.78988 156 0.401315
2415 1 Ni 58.71 12.3256 17.4999 8.72854 0 0
174 1 Ni 58.71 12.3833 15.7801 0.00277778 0 0
160 1 Ni 58.71 31.5749 12.3507 1.79548 160 1.56246
195 1 Ni 58.71 29.8855 14.1192 1.69873 195 0.559815
1109 1 Ni 58.71 24.6252 6.96735 17.554 1109 -0.117353
1085 1 Ni 58.71 3.46553 7.05799 17.5297 0 0
199 1 Ni 58.71 33.4378 14.1273 1.73854 199 -0.421755
803 1 Ni 58.71 1.72676 0.018792 15.8085 0 0
164 1 Ni 58.71 0.0504519 15.8732 1.86577 0 0
2801 1 Ni 58.71 0.0642907 17.5649 14.2009 0 0
168 1 Ni 58.71 3.57352 15.8025 1.76718 0 0
172 1 Ni 58.71 7.09656 15.7904 1.76777 0 0
837 1 Ni 58.71 31.6478 0.034049 14.0903 837 -0.378346
176 1 Ni 58.71 10.5754 15.8101 1.7616 0 0
198 1 Ni 58.71 33.4099 15.867 -0.0152329 198 0.38438
1001 1 Ni 58.71 0.0136512 0.0258204 17.4473 0 0
180 1 Ni 58.71 14.0578 15.7849 1.7508 0 0
184 1 Ni 58.71 17.6164 15.7897 1.68514 184 0.327539
2029 1 Ni 58.71 24.6402 17.5566 0.00244158 2029 0.449592
188 1 Ni 58.71 21.2561 15.8199 1.65602 188 -0.809175
417 1 Ni 58.71 14.0602 0.0364801 7.05082 0 0
15 1 Ni 58.71 12.2884 0.121365 1.71311 0 0
192 1 Ni 58.71 24.6187 15.863 1.72807 192 0.167454
196 1 Ni 58.71 28.1782 15.865 1.83445 196 0.149452
165 1 Ni 58.71 3.53543 14.0023 0.0622304 0 0
200 1 Ni 58.71 31.627 15.8784 1.84866 200 0.798075
895 1 Ni 58.71 12.3267 7.03875 15.8283 0 0
991 1 Ni 58.71 26.3345 14.0608 15.8336 991 0.168305
202 1 Ni 58.71 1.8518 1.76261 3.47269 0 0
1026 1 Ni 58.71 22.9457 1.69579 17.5598 1026 -0.819352
204 1 Ni 58.71 0.0346947 1.80301 5.28473 0 0
952 1 Ni 58.71 24.57 12.2232 15.8537 952 0.381712
206 1 Ni 58.71 5.32463 1.77728 3.48502 0 0
987 1 Ni 58.71 22.8329 14.1153 15.9271 987 -0.381789
208 1 Ni 58.71 3.58227 1.72539 5.29348 0 0
983 1 Ni 58.71 19.2684 14.0654 15.8597 983 0.118243
212 1 Ni 58.71 7.17202 1.86424 5.21174 0 0
210 1 Ni 58.71 8.84429 1.75023 3.50147 0 0
948 1 Ni 58.71 21.0861 12.3031 15.7903 948 -0.23787
2835 1 Ni 58.71 29.9104 17.5635 15.931 2835 0.411226
216 1 Ni 58.71 10.6479 1.83115 5.27217 0 0
214 1 Ni 58.71 12.4254 1.71598 3.50643 0 0
944 1 Ni 58.71 17.5664 12.3483 15.8702 944 -0.264485
2209 1 Ni 58.71 7.01522 17.6172 3.6407 0 0
218 1 Ni 58.71 15.7974 1.88487 3.54578 0 0
1134 1 Ni 58.71 12.2158 12.3414 17.5664 0 0
220 1 Ni 58.71 14.0767 1.78596 5.37343 0 0
979 1 Ni 58.71 15.7826 14.1593 15.8631 0 0
224 1 Ni 58.71 17.5976 1.84643 5.1512 224 -0.308285
222 1 Ni 58.71 19.3381 1.83679 3.50419 222 0.483225
940 1 Ni 58.71 14.0998 12.3139 15.824 0 0
403 1 Ni 58.71 1.85795 0.0250613 8.7569 0 0
228 1 Ni 58.71 21.0679 1.72809 5.29946 228 0.791695
226 1 Ni 58.71 22.9522 1.75687 3.58023 226 -0.61
975 1 Ni 58.71 12.2256 14.1698 15.8873 0 0
2007 1 Ni 58.71 5.43985 17.573 1.81254 0 0
230 1 Ni 58.71 26.5165 1.77812 3.47822 230 -0.974241
823 1 Ni 58.71 19.187 0.0361149 15.851 823 1.20707
232 1 Ni 58.71 24.6537 1.74027 5.29093 232 0.818518
211 1 Ni 58.71 8.80358 0.076911 5.25477 0 0
236 1 Ni 58.71 28.2215 1.65465 5.16319 236 -0.140465
234 1 Ni 58.71 29.9371 1.79941 3.5777 234 0.193001
971 1 Ni 58.71 8.78148 14.1145 15.8112 0 0
605 1 Ni 58.71 3.58062 0.0472717 10.525 0 0
240 1 Ni 58.71 31.651 1.72969 5.25628 240 0.517932
238 1 Ni 58.71 33.5173 1.78827 3.53911 238 -0.560671
936 1 Ni 58.71 10.4977 12.3149 15.8748 0 0
241 1 Ni 58.71 35.1862 3.55838 3.52927 0 0
242 1 Ni 58.71 1.76842 5.24589 3.53816 0 0
243 1 Ni 58.71 1.77233 3.5807 5.3001 0 0
244 1 Ni 58.71 0.0382032 5.31881 5.25519 0 0
245 1 Ni 58.71 3.56525 3.56183 3.5582 0 0
246 1 Ni 58.71 5.29058 5.18739 3.57497 0 0
247 1 Ni 58.71 5.28772 3.48335 5.29673 0 0
248 1 Ni 58.71 3.47815 5.23813 5.31255 0 0
249 1 Ni 58.71 7.17391 3.52665 3.58864 0 0
252 1 Ni 58.71 7.06543 5.29283 5.30191 0 0
250 1 Ni 58.71 8.85404 5.30882 3.52274 0 0
251 1 Ni 58.71 8.83232 3.63244 5.27243 0 0
253 1 Ni 58.71 10.6136 3.4081 3.55184 0 0
256 1 Ni 58.71 10.6518 5.1955 5.31559 0 0
254 1 Ni 58.71 12.2617 5.30678 3.43202 0 0
255 1 Ni 58.71 12.3419 3.47498 5.26894 0 0
257 1 Ni 58.71 14.0553 3.65968 3.5 0 0
258 1 Ni 58.71 15.7861 5.35913 3.43036 0 0
259 1 Ni 58.71 15.8128 3.52557 5.3586 0 0
260 1 Ni 58.71 14.1079 5.2494 5.31881 0 0
261 1 Ni 58.71 17.5608 3.6354 3.52939 261 0.0765917
264 1 Ni 58.71 17.5926 5.18423 5.28648 264 -0.0021396
262 1 Ni 58.71 19.406 5.29693 3.56392 262 -0.535544
263 1 Ni 58.71 19.3336 3.45972 5.31532 263 0.0183271
265 1 Ni 58.71 21.1299 3.53894 3.56376 265 0.224417
268 1 Ni 58.71 21.156 5.25808 5.20661 268 0.0306972
266 1 Ni 58.71 23.001 5.33014 3.51251 266 -0.531907
267 1 Ni 58.71 22.9324 3.39086 5.2804 267 -0.367006
269 1 Ni 58.71 24.7084 3.53623 3.61306 269 0.239055
270 1 Ni 58.71 26.4444 5.36255 3.53931 270 0.245451
271 1 Ni 58.71 26.5292 3.47222 5.27096 271 -0.34234
272 1 Ni 58.71 24.6566 5.27494 5.35111 272 0.570304
273 1 Ni 58.71 28.2317 3.62833 3.56229 273 -0.259193
276 1 Ni 58.71 28.3035 5.41576 5.31403 276 -0.56381
274 1 Ni 58.71 29.9889 5.34712 3.44572 274 0.244561
275 1 Ni 58.71 29.9008 3.55508 5.28074 275 0.607173
277 1 Ni 58.71 31.7302 3.53751 3.51773 277 -0.126114
280 1 Ni 58.71 31.7262 5.30225 5.33777 280 -0.680486
278 1 Ni 58.71 33.4595 5.30373 3.5729 278 0.0152638
279 1 Ni 58.71 33.4672 3.52259 5.30967 279 -0.185066
281 1 Ni 58.71 35.1736 7.10445 3.52121 0 0
283 1 Ni 58.71 1.74447 7.05035 5.34217 0 0
285 1 Ni 58.71 3.48781 6.99473 3.53457 0 0
287 1 Ni 58.71 5.2586 7.07087 5.30319 0 0
289 1 Ni 58.71 7.05914 6.94212 3.45943 0 0
291 1 Ni 58.71 8.85409 7.0252 5.24596 0 0
293 1 Ni 58.71 10.6029 7.05951 3.43469 0 0
295 1 Ni 58.71 12.3016 7.05805 5.24025 0 0
297 1 Ni 58.71 14.1149 7.09678 3.40376 0 0
299 1 Ni 58.71 15.7913 7.01753 5.19452 0 0
301 1 Ni 58.71 17.5686 7.05352 3.47897 301 0.246871
303 1 Ni 58.71 19.3256 7.09146 5.22126 303 -0.396743
305 1 Ni 58.71 21.0507 7.06314 3.51733 305 1.06592
307 1 Ni 58.71 22.8585 6.98877 5.28506 307 0.283767
309 1 Ni 58.71 24.7356 7.03618 3.6315 309 -0.0557413
311 1 Ni 58.71 26.5956 7.1687 5.32111 311 -1.48429
313 1 Ni 58.71 28.2435 7.05476 3.5077 313 -0.667848
315 1 Ni 58.71 29.9996 7.10078 5.29985 315 0.176661
317 1 Ni 58.71 31.757 7.04646 3.46506 317 -0.41167
319 1 Ni 58.71 33.3303 7.05872 5.30103 319 0.781581
282 1 Ni 58.71 1.69202 8.80952 3.55679 0 0
284 1 Ni 58.71 35.0679 8.76259 5.23551 0 0
321 1 Ni 58.71 35.1151 10.6269 3.50351 0 0
323 1 Ni 58.71 1.68111 10.6001 5.21167 0 0
286 1 Ni 58.71 5.28547 8.76326 3.48709 0 0
288 1 Ni 58.71 3.51448 8.69007 5.19577 0 0
325 1 Ni 58.71 3.45001 10.537 3.58944 0 0
327 1 Ni 58.71 5.21363 10.5281 5.311 0 0
292 1 Ni 58.71 7.06662 8.79338 5.30658 0 0
329 1 Ni 58.71 6.97895 10.4481 3.52011 0 0
290 1 Ni 58.71 8.8349 8.82957 3.56819 0 0
296 1 Ni 58.71 10.6881 8.79052 5.23406 0 0
331 1 Ni 58.71 8.85178 10.4713 5.26956 0 0
333 1 Ni 58.71 10.5179 10.5556 3.49114 0 0
294 1 Ni 58.71 12.3773 8.84961 3.54119 0 0
335 1 Ni 58.71 12.3318 10.625 5.28485 0 0
298 1 Ni 58.71 15.8521 8.8456 3.56509 0 0
300 1 Ni 58.71 14.0626 8.83377 5.29343 0 0
337 1 Ni 58.71 14.0743 10.5648 3.47766 0 0
339 1 Ni 58.71 15.8433 10.6101 5.22204 0 0
304 1 Ni 58.71 17.5849 8.79671 5.24425 304 -0.197145
341 1 Ni 58.71 17.6427 10.5833 3.53521 341 -0.158589
302 1 Ni 58.71 19.3787 8.80554 3.66213 302 -0.219176
308 1 Ni 58.71 21.0461 8.74808 5.32052 308 0.882157
343 1 Ni 58.71 19.3103 10.6293 5.31377 343 0.487062
345 1 Ni 58.71 21.1706 10.5894 3.53121 345 -0.566073
306 1 Ni 58.71 22.8762 8.7853 3.56867 306 -0.275757
347 1 Ni 58.71 22.8192 10.5131 5.32502 347 0.0608757
310 1 Ni 58.71 26.5571 8.84267 3.51108 310 -0.706742
312 1 Ni 58.71 24.655 8.82473 5.21073 312 0.309676
349 1 Ni 58.71 24.682 10.4754 3.58296 349 0.34023
351 1 Ni 58.71 26.4684 10.523 5.34054 351 -0.484234
316 1 Ni 58.71 28.2424 8.78304 5.37929 316 0.00658525
353 1 Ni 58.71 28.1623 10.5292 3.59942 353 0.306422
314 1 Ni 58.71 29.8524 8.78827 3.60069 314 1.04493
320 1 Ni 58.71 31.7008 8.82028 5.33969 320 0.061577
355 1 Ni 58.71 29.9706 10.54 5.25158 355 -0.282178
357 1 Ni 58.71 31.6678 10.6504 3.52822 357 0.36702
318 1 Ni 58.71 33.4516 8.87623 3.46364 318 -0.747121
359 1 Ni 58.71 33.3604 10.6174 5.26452 359 0.564983
322 1 Ni 58.71 1.7145 12.4403 3.57129 0 0
324 1 Ni 58.71 35.1862 12.3074 5.2631 0 0
361 1 Ni 58.71 35.1821 14.0628 3.42856 0 0
363 1 Ni 58.71 1.72398 14.1063 5.33027 0 0
326 1 Ni 58.71 5.31833 12.2596 3.68019 0 0
328 1 Ni 58.71 3.50979 12.3171 5.4054 0 0
365 1 Ni 58.71 3.56634 13.9128 3.55168 0 0
367 1 Ni 58.71 5.23702 14.0046 5.34561 0 0
332 1 Ni 58.71 7.04841 12.2318 5.35045 0 0
369 1 Ni 58.71 7.03251 14.0839 3.48718 0 0
330 1 Ni 58.71 8.72878 12.3006 3.42154 0 0
336 1 Ni 58.71 10.4891 12.3905 5.23725 0 0
371 1 Ni 58.71 8.76161 13.9854 5.21577 0 0
373 1 Ni 58.71 10.4744 14.0307 3.52119 0 0
334 1 Ni 58.71 12.2567 12.3056 3.48495 0 0
375 1 Ni 58.71 12.3094 14.0525 5.23493 0 0
338 1 Ni 58.71 15.8394 12.3323 3.48194 0 0
340 1 Ni 58.71 14.1312 12.3074 5.28648 0 0
377 1 Ni 58.71 14.0712 14.0546 3.5534 0 0
379 1 Ni 58.71 15.7863 14.0834 5.26697 0 0
344 1 Ni 58.71 17.5594 12.3853 5.33276 344 0.0975965
381 1 Ni 58.71 17.5393 14.0138 3.51635 381 1.04393
342 1 Ni 58.71 19.4237 12.3172 3.46898 342 -0.416846
348 1 Ni 58.71 21.1265 12.4019 5.26583 348 -0.0499306
383 1 Ni 58.71 19.433 14.038 5.3307 383 -0.827619
385 1 Ni 58.71 21.1523 14.0285 3.52492 385 0.219236
346 1 Ni 58.71 22.9121 12.3288 3.60002 346 0.0935329
387 1 Ni 58.71 22.8739 14.0375 5.32974 387 0.254016
350 1 Ni 58.71 26.3547 12.3715 3.62624 350 0.184109
352 1 Ni 58.71 24.602 12.1633 5.33836 352 0.435764
389 1 Ni 58.71 24.5869 14.1488 3.4949 389 0.0257198
391 1 Ni 58.71 26.3613 14.0779 5.35406 391 -0.0438833
356 1 Ni 58.71 28.2338 12.3128 5.29434 356 -0.300778
393 1 Ni 58.71 28.1595 14.1298 3.61195 393 -0.0425246
354 1 Ni 58.71 29.9536 12.2608 3.50024 354 -0.947048
360 1 Ni 58.71 31.6345 12.3189 5.32438 360 0.330124
395 1 Ni 58.71 29.9337 14.1749 5.24791 395 -0.0125965
397 1 Ni 58.71 31.7431 14.0811 3.54768 397 -0.7099
358 1 Ni 58.71 33.5081 12.4292 3.41792 358 -1.11211
399 1 Ni 58.71 33.5144 14.0932 5.31897 399 -0.437984
362 1 Ni 58.71 1.86265 15.8134 3.4479 0 0
364 1 Ni 58.71 35.1708 15.8571 5.29034 0 0
366 1 Ni 58.71 5.27778 15.753 3.62605 0 0
368 1 Ni 58.71 3.55712 15.8715 5.3408 0 0
372 1 Ni 58.71 7.04282 15.7989 5.3236 0 0
370 1 Ni 58.71 8.85297 15.8649 3.55763 0 0
376 1 Ni 58.71 10.5044 15.8526 5.25934 0 0
374 1 Ni 58.71 12.3053 15.8497 3.53106 0 0
378 1 Ni 58.71 15.9234 15.8212 3.52183 0 0
380 1 Ni 58.71 14.0994 15.8407 5.27138 0 0
384 1 Ni 58.71 17.6152 15.7637 5.3081 384 0.0802596
382 1 Ni 58.71 19.3664 15.7972 3.52819 382 0.111093
388 1 Ni 58.71 21.1174 15.7647 5.27884 388 0.189424
386 1 Ni 58.71 22.8927 15.8216 3.53651 386 -0.606051
390 1 Ni 58.71 26.3572 15.8472 3.55273 390 0.0532122
392 1 Ni 58.71 24.5084 15.8356 5.25864 392 1.32134
396 1 Ni 58.71 28.1852 15.9792 5.27918 396 -0.733801
394 1 Ni 58.71 29.9828 15.9236 3.56997 394 -0.585297
400 1 Ni 58.71 31.6735 15.9048 5.19875 400 0.309442
398 1 Ni 58.71 33.4475 15.7862 3.52261 398 0.142708
932 1 Ni 58.71 7.0155 12.3147 15.8568 0 0
402 1 Ni 58.71 1.79398 1.74926 7.10015 0 0
189 1 Ni 58.71 24.6711 14.0445 0.0497173 189 0.548154
406 1 Ni 58.71 5.25988 1.83006 7.04948 0 0
411 1 Ni 58.71 8.88578 0.0127166 8.86433 0 0
410 1 Ni 58.71 8.85318 1.79855 7.02781 0 0
967 1 Ni 58.71 5.20625 14.1247 15.8448 0 0
414 1 Ni 58.71 12.2103 1.82453 7.0895 0 0
928 1 Ni 58.71 3.49518 12.3441 15.9252 0 0
418 1 Ni 58.71 15.8271 1.79935 7.09066 0 0
963 1 Ni 58.71 1.67835 14.144 15.9129 0 0
422 1 Ni 58.71 19.3613 1.76789 7.05325 422 -0.317963
924 1 Ni 58.71 35.1126 12.2329 15.9599 0 0
426 1 Ni 58.71 22.9619 1.73958 6.95425 426 -0.970391
409 1 Ni 58.71 7.05464 0.0905225 7.02304 0 0
430 1 Ni 58.71 26.4119 1.6798 7.00128 430 0.442561
959 1 Ni 58.71 33.3981 10.4229 15.9107 959 0.505929
434 1 Ni 58.71 29.8686 1.74964 7.11955 434 0.451668
621 1 Ni 58.71 17.6311 0.0398604 10.6444 621 -0.366225
438 1 Ni 58.71 33.504 1.72601 7.09625 438 -0.671098
441 1 Ni 58.71 -0.0108355 3.47554 7.07996 0 0
442 1 Ni 58.71 1.70712 5.32903 7.06846 0 0
445 1 Ni 58.71 3.55888 3.55726 6.95958 0 0
446 1 Ni 58.71 5.17154 5.26594 6.95315 0 0
449 1 Ni 58.71 7.08099 3.58387 7.01247 0 0
450 1 Ni 58.71 8.81241 5.2413 6.97836 0 0
453 1 Ni 58.71 10.5934 3.54681 7.04626 0 0
454 1 Ni 58.71 12.3397 5.32427 7.05697 0 0
457 1 Ni 58.71 14.0647 3.5784 7.14742 0 0
458 1 Ni 58.71 15.9074 5.36007 7.05767 0 0
461 1 Ni 58.71 17.5427 3.53588 7.10016 461 0.481244
462 1 Ni 58.71 19.369 5.37833 7.01019 462 -0.356053
465 1 Ni 58.71 21.0794 3.5773 6.92923 465 0.366113
466 1 Ni 58.71 22.9465 5.17717 6.99585 466 -0.755019
469 1 Ni 58.71 24.7584 3.52951 7.07165 469 -0.061724
470 1 Ni 58.71 26.4765 5.32981 6.95626 470 -0.00432949
473 1 Ni 58.71 28.2055 3.48026 7.03925 473 -0.501523
474 1 Ni 58.71 29.9893 5.30392 7.0475 474 -0.562292
477 1 Ni 58.71 31.7031 3.52727 7.06323 477 -0.0533607
478 1 Ni 58.71 33.4803 5.31835 6.98206 478 -0.0939617
481 1 Ni 58.71 35.1551 7.05008 7.00334 0 0
485 1 Ni 58.71 3.48709 7.05567 7.03976 0 0
489 1 Ni 58.71 7.01036 7.07062 7.04378 0 0
493 1 Ni 58.71 10.4987 7.01702 7.02672 0 0
497 1 Ni 58.71 14.0889 7.02369 6.9716 0 0
501 1 Ni 58.71 17.5682 7.12817 7.02472 501 0.123007
505 1 Ni 58.71 21.0873 7.04742 6.96867 505 0.427899
509 1 Ni 58.71 24.6757 7.00266 7.06346 509 -0.098059
513 1 Ni 58.71 28.2425 7.09728 7.10034 513 0.207217
517 1 Ni 58.71 31.6383 7.08628 7.09879 517 0.073863
482 1 Ni 58.71 1.69069 8.80231 7.06717 0 0
521 1 Ni 58.71 -0.00495527 10.5919 7.04488 0 0
486 1 Ni 58.71 5.22662 8.7363 7.07643 0 0
525 1 Ni 58.71 3.41365 10.4766 7.0344 0 0
529 1 Ni 58.71 6.94683 10.5824 6.98382 0 0
490 1 Ni 58.71 8.81979 8.75086 6.9591 0 0
533 1 Ni 58.71 10.6019 10.645 7.05425 0 0
494 1 Ni 58.71 12.291 8.78267 7.02637 0 0
498 1 Ni 58.71 15.8646 8.85769 7.05262 0 0
537 1 Ni 58.71 14.1149 10.4595 6.97807 0 0
541 1 Ni 58.71 17.5788 10.5609 7.02454 541 -0.322231
502 1 Ni 58.71 19.3355 8.77476 7.08849 502 -0.374289
545 1 Ni 58.71 21.0706 10.4979 7.03109 545 0.0965789
506 1 Ni 58.71 22.9151 8.74639 7.03899 506 -0.450459
510 1 Ni 58.71 26.4362 8.86832 7.07719 510 -0.0932107
549 1 Ni 58.71 24.5983 10.4626 7.09341 549 0.504374
553 1 Ni 58.71 28.1529 10.6816 7.0267 553 1.06338
514 1 Ni 58.71 29.911 9.012 7.08708 514 0.28301
557 1 Ni 58.71 31.6625 10.6946 7.07109 557 0.289031
518 1 Ni 58.71 33.4653 8.77559 7.12817 518 -0.492011
522 1 Ni 58.71 1.74235 12.3444 6.99433 0 0
561 1 Ni 58.71 35.1205 14.0354 7.17791 0 0
526 1 Ni 58.71 5.22063 12.32 7.1496 0 0
565 1 Ni 58.71 3.63538 14.0891 7.08087 0 0
569 1 Ni 58.71 7.12246 14.0201 7.12958 0 0
530 1 Ni 58.71 8.83315 12.3211 7.0016 0 0
573 1 Ni 58.71 10.6214 14.0818 7.04314 0 0
534 1 Ni 58.71 12.3953 12.3839 7.03407 0 0
538 1 Ni 58.71 15.8082 12.2797 7.1048 0 0
577 1 Ni 58.71 14.0486 14.1215 7.00616 0 0
581 1 Ni 58.71 17.6094 13.9714 7.08796 581 -0.586099
542 1 Ni 58.71 19.3097 12.3798 7.04872 542 0.980832
585 1 Ni 58.71 21.1556 14.0623 7.14178 585 -0.0976782
546 1 Ni 58.71 22.8536 12.2385 7.05195 546 -0.139224
550 1 Ni 58.71 26.4077 12.2695 7.12485 550 -0.286102
589 1 Ni 58.71 24.6132 14.078 7.07284 589 -0.177356
593 1 Ni 58.71 28.1767 14.1803 7.01629 593 -0.31917
554 1 Ni 58.71 29.8926 12.3941 7.11896 554 0.243552
597 1 Ni 58.71 31.7059 14.1538 6.96433 597 -0.50922
558 1 Ni 58.71 33.478 12.3106 7.09488 558 -0.603001
562 1 Ni 58.71 1.73027 15.7718 7.07324 0 0
566 1 Ni 58.71 5.41949 15.7293 7.07444 0 0
570 1 Ni 58.71 8.77446 15.7979 6.98263 0 0
574 1 Ni 58.71 12.3423 15.8432 7.0538 0 0
578 1 Ni 58.71 15.8699 15.717 6.95759 0 0
582 1 Ni 58.71 19.2865 15.8324 6.99754 582 0.82673
586 1 Ni 58.71 22.8819 15.8412 7.05033 586 -0.0224853
590 1 Ni 58.71 26.3378 15.9211 7.08293 590 0.125768
594 1 Ni 58.71 29.8596 15.9393 7.09694 594 0.0545175
598 1 Ni 58.71 33.4388 15.9018 7.03772 598 -0.464436
955 1 Ni 58.71 29.91 10.5179 15.7697 955 -0.00335379
404 1 Ni 58.71 0.0310039 1.78747 8.77021 0 0
920 1 Ni 58.71 31.7288 8.715 15.8932 920 -0.781219
602 1 Ni 58.71 1.80537 1.75725 10.446 0 0
619 1 Ni 58.71 15.8911 0.0207087 12.3527 0 0
408 1 Ni 58.71 3.62611 1.89736 8.75539 0 0
916 1 Ni 58.71 28.1899 8.69942 15.8529 916 -0.477203
606 1 Ni 58.71 5.28354 1.82621 10.5579 0 0
412 1 Ni 58.71 7.15662 1.77459 8.80311 0 0
951 1 Ni 58.71 26.304 10.505 15.8723 951 0.845263
1141 1 Ni 58.71 17.5173 10.5439 17.5379 1141 0.510516
416 1 Ni 58.71 10.516 1.74447 8.87857 0 0
610 1 Ni 58.71 8.82373 1.78876 10.5789 0 0
2203 1 Ni 58.71 1.7789 17.6055 5.23717 0 0
912 1 Ni 58.71 24.6107 8.77851 15.761 912 -0.303961
614 1 Ni 58.71 12.2108 1.8417 10.6049 0 0
639 1 Ni 58.71 33.4101 0.0977056 12.3439 639 0.159376
420 1 Ni 58.71 13.9326 1.85424 8.77098 0 0
947 1 Ni 58.71 22.7768 10.4507 15.8199 947 0.672224
618 1 Ni 58.71 15.7802 1.79 10.5791 0 0
424 1 Ni 58.71 17.6831 1.73957 8.82837 424 -0.806937
617 1 Ni 58.71 14.037 0.0640567 10.518 0 0
943 1 Ni 58.71 19.326 10.552 15.8021 943 0.279854
428 1 Ni 58.71 21.1284 1.87407 8.73123 428 0.218648
622 1 Ni 58.71 19.4599 1.85335 10.5836 622 -0.477053
1093 1 Ni 58.71 10.5583 7.11489 17.6055 0 0
2839 1 Ni 58.71 33.4413 17.6162 15.8706 2839 -0.602924
626 1 Ni 58.71 22.8842 1.75885 10.5458 626 -0.0275194
613 1 Ni 58.71 10.6115 0.0932078 10.6182 0 0
432 1 Ni 58.71 24.6611 1.76389 8.6843 432 0.0800889
1094 1 Ni 58.71 12.2672 8.90295 17.5403 0 0
630 1 Ni 58.71 26.3904 1.74113 10.5947 630 -0.00524017
436 1 Ni 58.71 28.0731 1.72914 8.79219 436 0.243929
908 1 Ni 58.71 21.0565 8.76018 15.8388 908 -0.0888068
904 1 Ni 58.71 17.6874 8.83421 15.8443 904 -0.851868
440 1 Ni 58.71 31.7045 1.80076 8.79078 440 -0.16836
634 1 Ni 58.71 29.8801 1.63851 10.5356 634 0.175407
625 1 Ni 58.71 21.1869 0.0454763 10.4901 625 -0.466564
939 1 Ni 58.71 15.7709 10.4549 15.8315 0 0
638 1 Ni 58.71 33.489 1.80902 10.6233 638 -0.466194
443 1 Ni 58.71 1.73727 3.63717 8.85279 0 0
444 1 Ni 58.71 35.1841 5.22392 8.8514 0 0
641 1 Ni 58.71 0.0197965 3.47028 10.5423 0 0
642 1 Ni 58.71 1.83233 5.35148 10.6036 0 0
447 1 Ni 58.71 5.39292 3.5135 8.78666 0 0
448 1 Ni 58.71 3.56027 5.3385 8.77493 0 0
645 1 Ni 58.71 3.51476 3.49493 10.5729 0 0
646 1 Ni 58.71 5.18491 5.24422 10.5271 0 0
452 1 Ni 58.71 6.97892 5.31495 8.73944 0 0
649 1 Ni 58.71 7.00066 3.55028 10.5475 0 0
451 1 Ni 58.71 8.93509 3.55799 8.72415 0 0
456 1 Ni 58.71 10.6266 5.33111 8.80975 0 0
650 1 Ni 58.71 8.65705 5.3591 10.4599 0 0
653 1 Ni 58.71 10.5188 3.66816 10.5459 0 0
455 1 Ni 58.71 12.2545 3.54196 8.87499 0 0
654 1 Ni 58.71 12.4005 5.28632 10.6621 0 0
459 1 Ni 58.71 15.8381 3.4289 8.85629 0 0
460 1 Ni 58.71 14.1042 5.28684 8.77566 0 0
657 1 Ni 58.71 14.0953 3.48509 10.5819 0 0
658 1 Ni 58.71 15.8071 5.30563 10.5554 0 0
464 1 Ni 58.71 17.6219 5.3529 8.76404 464 -0.291272
661 1 Ni 58.71 17.5985 3.61092 10.564 661 -0.212429
463 1 Ni 58.71 19.3133 3.55839 8.75346 463 0.623994
468 1 Ni 58.71 21.1124 5.38953 8.78246 468 0.231935
662 1 Ni 58.71 19.372 5.30101 10.6184 662 -0.403376
665 1 Ni 58.71 21.1572 3.61044 10.5547 665 -0.326343
467 1 Ni 58.71 22.8661 3.55752 8.72041 467 -0.118787
666 1 Ni 58.71 22.9041 5.29077 10.5717 666 -0.223131
471 1 Ni 58.71 26.4321 3.57241 8.8555 471 0.316017
472 1 Ni 58.71 24.6027 5.21987 8.81593 472 0.453233
669 1 Ni 58.71 24.6708 3.47815 10.464 669 -0.629183
670 1 Ni 58.71 26.3497 5.26971 10.5494 670 0.713105
476 1 Ni 58.71 28.1303 5.2924 8.77533 476 0.258186
673 1 Ni 58.71 28.2694 3.46748 10.5411 673 -1.04692
475 1 Ni 58.71 29.8772 3.58604 8.80309 475 0.595685
480 1 Ni 58.71 31.6827 5.26755 8.75745 480 0.178917
674 1 Ni 58.71 29.9216 5.28632 10.5983 674 -0.11761
677 1 Ni 58.71 31.7116 3.57836 10.5565 677 -0.662964
479 1 Ni 58.71 33.4746 3.55243 8.80659 479 -0.409151
678 1 Ni 58.71 33.4238 5.27273 10.5355 678 0.387343
483 1 Ni 58.71 1.62547 7.05632 8.84829 0 0
681 1 Ni 58.71 35.1182 6.94114 10.616 0 0
487 1 Ni 58.71 5.3439 7.01016 8.72633 0 0
685 1 Ni 58.71 3.58039 7.14978 10.4345 0 0
689 1 Ni 58.71 6.96105 7.05268 10.6153 0 0
491 1 Ni 58.71 8.73103 7.02611 8.77186 0 0
693 1 Ni 58.71 10.5819 6.93603 10.5343 0 0
495 1 Ni 58.71 12.2907 7.00761 8.7796 0 0
499 1 Ni 58.71 15.8026 7.05444 8.80134 0 0
697 1 Ni 58.71 14.1184 7.12333 10.5941 0 0
701 1 Ni 58.71 17.5324 7.08176 10.6159 701 0.196849
503 1 Ni 58.71 19.3658 7.01406 8.80311 503 -0.495001
705 1 Ni 58.71 21.087 7.07665 10.6006 705 -0.0118086
507 1 Ni 58.71 22.8661 7.05778 8.73986 507 0.0459481
511 1 Ni 58.71 26.4107 7.02023 8.71344 511 -0.116946
709 1 Ni 58.71 24.6708 7.06386 10.5458 709 -0.720105
713 1 Ni 58.71 28.1244 7.00933 10.6136 713 0.41094
515 1 Ni 58.71 29.9146 6.95866 8.82754 515 0.0164295
717 1 Ni 58.71 31.7357 6.98224 10.4869 717 0.0744
519 1 Ni 58.71 33.4545 6.93245 8.7127 519 0.170924
484 1 Ni 58.71 35.1467 8.85669 8.85974 0 0
523 1 Ni 58.71 1.67238 10.5418 8.77163 0 0
682 1 Ni 58.71 1.69597 8.87165 10.6655 0 0
721 1 Ni 58.71 35.1535 10.6055 10.6093 0 0
488 1 Ni 58.71 3.49133 8.94523 8.79949 0 0
527 1 Ni 58.71 5.19148 10.5564 8.84634 0 0
686 1 Ni 58.71 5.20772 8.87611 10.5887 0 0
725 1 Ni 58.71 3.50095 10.6069 10.6119 0 0
492 1 Ni 58.71 6.97176 8.87612 8.75122 0 0
729 1 Ni 58.71 7.07489 10.5815 10.5043 0 0
496 1 Ni 58.71 10.5218 8.83013 8.75015 0 0
531 1 Ni 58.71 8.73644 10.5484 8.7226 0 0
690 1 Ni 58.71 8.83989 8.90592 10.5543 0 0
733 1 Ni 58.71 10.5306 10.5919 10.5288 0 0
535 1 Ni 58.71 12.2801 10.4934 8.95736 0 0
694 1 Ni 58.71 12.2572 8.74073 10.5183 0 0
500 1 Ni 58.71 14.032 8.87633 8.81171 0 0
539 1 Ni 58.71 15.8153 10.5559 8.86707 0 0
698 1 Ni 58.71 15.8295 8.87778 10.6759 0 0
737 1 Ni 58.71 14.0686 10.5593 10.6498 0 0
504 1 Ni 58.71 17.5724 8.7905 8.82537 504 -0.17231
741 1 Ni 58.71 17.6515 10.6332 10.5549 741 -1.08196
508 1 Ni 58.71 20.9814 8.8096 8.83491 508 0.53277
543 1 Ni 58.71 19.2264 10.6012 8.72356 543 1.15121
702 1 Ni 58.71 19.2122 8.82973 10.6182 702 0.828838