ITEM: TIMESTEP
500
ITEM: NUMBER OF ATOMS
4000
ITEM: BOX BOUNDS pp pp pp
0.0000000000000000e+00 3.5200000000000003e+01
0.0000000000000000e+00 3.5200000000000003e+01
0.0000000000000000e+00 3.5200000000000003e+01
ITEM: ATOMS id type element mass x y z c_1[1] c_1[2]
1000 1 Ni 58.71 31.6672 15.8238 15.9031 1000 -0.0390642
2837 1 Ni 58.71 31.6776 17.5072 14.1186 2837 -0.0899602
996 1 Ni 58.71 27.9903 15.7988 15.8665 996 1.23682
4 1 Ni 58.71 0.00713492 1.67011 1.77169 0 0
992 1 Ni 58.71 24.6956 15.801 15.8538 992 -0.667721
62 1 Ni 58.71 19.3636 5.17811 0.0375342 62 0.147413
988 1 Ni 58.71 21.2211 15.8128 15.8709 988 -0.489309
8 1 Ni 58.71 3.5988 1.70716 1.74391 0 0
984 1 Ni 58.71 17.6113 15.7611 15.9577 984 0.590087
12 1 Ni 58.71 7.01209 1.72298 1.80459 0 0
57 1 Ni 58.71 14.1262 3.52242 0.0405111 0 0
980 1 Ni 58.71 14.1107 15.7803 15.8487 0 0
976 1 Ni 58.71 10.6265 15.7855 15.8557 0 0
16 1 Ni 58.71 10.6772 1.63772 1.74668 0 0
2221 1 Ni 58.71 17.5733 17.5962 3.5088 2221 -0.045607
972 1 Ni 58.71 7.04726 15.8415 15.8096 0 0
221 1 Ni 58.71 17.7089 0.0643324 3.4016 221 -0.74906
2211 1 Ni 58.71 8.90992 17.4762 5.31047 0 0
968 1 Ni 58.71 3.41287 15.7459 15.9151 0 0
20 1 Ni 58.71 13.9286 1.71978 1.78785 0 0
964 1 Ni 58.71 0.0863967 15.7609 15.8786 0 0
24 1 Ni 58.71 17.6715 1.75891 1.67827 24 -0.750583
2435 1 Ni 58.71 29.9341 17.5919 8.80364 2435 -0.139086
999 1 Ni 58.71 33.3903 14.0783 15.9751 999 0.230901
995 1 Ni 58.71 29.8146 14.0962 15.7973 995 0.664949
28 1 Ni 58.71 21.1576 1.72185 1.74063 28 0.0830488
205 1 Ni 58.71 3.48877 0.0128963 3.50973 0 0
186 1 Ni 58.71 22.7921 15.8402 0.133745 186 1.01993
185 1 Ni 58.71 21.1955 13.9654 0.187093 185 -0.205555
421 1 Ni 58.71 17.6005 0.0417122 7.05814 421 0.398961
960 1 Ni 58.71 31.6123 12.3165 15.8859 960 -0.208411
32 1 Ni 58.71 24.6408 1.76467 1.61534 32 0.0801751
956 1 Ni 58.71 28.1874 12.1761 15.7554 956 -0.413957
36 1 Ni 58.71 27.9849 1.76067 1.74317 36 1.27253
2615 1 Ni 58.71 12.2514 17.5519 12.3064 0 0
2639 1 Ni 58.71 33.4828 17.5675 12.2979 2639 0.0946261
2601 1 Ni 58.71 0.0185668 17.4758 10.5945 0 0
40 1 Ni 58.71 31.6705 1.71658 1.79274 40 -0.160774
1106 1 Ni 58.71 22.6867 8.72701 17.5024 1106 1.07658
10 1 Ni 58.71 8.78877 1.76275 0.0511566 0 0
90 1 Ni 58.71 8.84146 8.75899 0.0427741 0 0
235 1 Ni 58.71 29.9891 0.0304581 5.27792 235 -0.361939
43 1 Ni 58.71 1.79616 3.41798 1.76283 0 0
44 1 Ni 58.71 0.0221217 5.23295 1.67876 0 0
118 1 Ni 58.71 33.4559 8.86964 0.0881634 118 -0.570364
1130 1 Ni 58.71 8.82096 12.2864 17.4516 0 0
47 1 Ni 58.71 5.30445 3.4474 1.75418 0 0
48 1 Ni 58.71 3.54928 5.24898 1.75291 0 0
2213 1 Ni 58.71 10.54 17.493 3.55616 0 0
52 1 Ni 58.71 7.02538 5.30453 1.72588 0 0
217 1 Ni 58.71 13.9219 0.000151714 3.46583 0 0
51 1 Ni 58.71 8.79044 3.47506 1.73837 0 0
215 1 Ni 58.71 12.2972 0.0128766 5.27144 0 0
56 1 Ni 58.71 10.7086 5.37944 1.8004 0 0
1186 1 Ni 58.71 22.905 15.7594 17.5643 1186 -0.143969
55 1 Ni 58.71 12.4211 3.58818 1.73593 0 0
2037 1 Ni 58.71 31.7362 17.5731 0.00761071 2037 -0.252037
1193 1 Ni 58.71 28.1725 13.9453 17.5836 1193 -0.878377
59 1 Ni 58.71 15.779 3.51663 1.86904 0 0
60 1 Ni 58.71 14.15 5.32783 1.7537 0 0
2833 1 Ni 58.71 28.08 17.5175 13.9648 2833 0.435822
64 1 Ni 58.71 17.5393 5.25191 1.74855 64 0.289757
2817 1 Ni 58.71 14.0562 17.5925 14.0337 0 0
63 1 Ni 58.71 19.4142 3.57825 1.80861 63 -0.193605
2635 1 Ni 58.71 29.8513 17.4911 12.2629 2635 0.386429
68 1 Ni 58.71 21.1343 5.2671 1.70716 68 0.621061
2819 1 Ni 58.71 15.9111 17.6061 15.8116 0 0
67 1 Ni 58.71 22.8797 3.49659 1.62289 67 0.0446708
1189 1 Ni 58.71 24.5707 14.0422 17.4932 1189 0.592709
2413 1 Ni 58.71 10.5889 17.5418 7.04417 0 0
71 1 Ni 58.71 26.3578 3.55299 1.70847 71 -0.103159
72 1 Ni 58.71 24.5247 5.27182 1.77019 72 0.779042
2219 1 Ni 58.71 15.7554 17.5088 5.25023 0 0
76 1 Ni 58.71 28.2275 5.29475 1.80187 76 -0.9739
2633 1 Ni 58.71 28.0951 17.5435 10.5469 2633 0.047126
75 1 Ni 58.71 29.9413 3.54492 1.84649 75 0.0742704
133 1 Ni 58.71 10.5892 10.5152 0.052551 0 0
80 1 Ni 58.71 31.6955 5.35554 1.77456 80 -0.331619
146 1 Ni 58.71 22.9245 12.2795 0.107147 146 -0.726504
79 1 Ni 58.71 33.4867 3.49317 1.81944 79 -0.307769
2619 1 Ni 58.71 15.7324 17.4613 12.3197 0 0
83 1 Ni 58.71 1.75576 7.04006 1.68844 0 0
1118 1 Ni 58.71 33.4714 8.72692 17.5634 1118 -0.603245
87 1 Ni 58.71 5.25594 7.08684 1.67645 0 0
11 1 Ni 58.71 8.72633 0.0649597 1.72894 0 0
91 1 Ni 58.71 8.85259 6.88688 1.68915 0 0
2437 1 Ni 58.71 31.7501 17.557 7.02099 2437 -0.916499
95 1 Ni 58.71 12.399 7.0207 1.759 0 0
2609 1 Ni 58.71 7.03185 17.5825 10.5613 0 0
99 1 Ni 58.71 15.8194 7.02041 1.738 0 0
173 1 Ni 58.71 10.5256 14.0309 0.0841306 0 0
103 1 Ni 58.71 19.4579 6.9329 1.74422 103 -0.746015
633 1 Ni 58.71 28.2388 0.117924 10.6075 633 -0.38007
107 1 Ni 58.71 22.9316 7.003 1.73058 107 -0.66182
2235 1 Ni 58.71 29.9322 17.5447 5.22163 2235 0.257957
111 1 Ni 58.71 26.3624 6.95971 1.83835 111 0.419433
38 1 Ni 58.71 33.3847 1.68252 0.0126763 38 0.616111
115 1 Ni 58.71 29.8905 6.98764 1.75904 115 0.528458
129 1 Ni 58.71 7.123 10.5047 -0.00414623 0 0
119 1 Ni 58.71 33.4396 7.02517 1.76746 119 -0.480155
53 1 Ni 58.71 10.6469 3.56015 0.0139319 0 0
84 1 Ni 58.71 35.1004 8.72376 1.76904 0 0
46 1 Ni 58.71 5.29842 5.19967 0.100456 0 0
123 1 Ni 58.71 1.84552 10.5446 1.62107 0 0
821 1 Ni 58.71 17.565 0.0632968 14.1009 821 0.309084
88 1 Ni 58.71 3.64527 8.78027 1.63176 0 0
223 1 Ni 58.71 19.3881 0.0581609 5.21391 223 -0.0420631
127 1 Ni 58.71 5.43314 10.4674 1.68201 0 0
92 1 Ni 58.71 7.16024 8.75717 1.71269 0 0
2605 1 Ni 58.71 3.42346 17.5654 10.5327 0 0
113 1 Ni 58.71 28.2055 6.95876 0.0251088 113 -0.459056
96 1 Ni 58.71 10.6071 8.70285 1.73113 0 0
131 1 Ni 58.71 8.86814 10.6044 1.70843 0 0
73 1 Ni 58.71 28.1162 3.52226 0.0805195 73 0.563313
2825 1 Ni 58.71 21.1498 17.5345 14.0997 2825 0.239631
135 1 Ni 58.71 12.2849 10.5251 1.66213 0 0
2815 1 Ni 58.71 12.3677 17.4976 15.7899 0 0
100 1 Ni 58.71 14.079 8.78487 1.81457 0 0
154 1 Ni 58.71 29.8876 12.3516 0.07898 154 0.115048
139 1 Ni 58.71 15.9069 10.4936 1.68968 0 0
104 1 Ni 58.71 17.6652 8.68367 1.68653 104 -0.220155
3021 1 Ni 58.71 17.6901 17.5122 17.5462 3021 -0.252432
429 1 Ni 58.71 24.7486 0.1285 7.09429 429 -0.816982
108 1 Ni 58.71 21.1598 8.65064 1.83571 108 0.198861
143 1 Ni 58.71 19.4017 10.5687 1.70412 143 -0.416516
1146 1 Ni 58.71 22.8331 12.2916 17.4842 1146 0.0241296
2617 1 Ni 58.71 14.1608 17.5502 10.5388 0 0
147 1 Ni 58.71 22.9164 10.5049 1.73689 147 -0.301783
2409 1 Ni 58.71 7.00276 17.5304 6.97982 0 0
112 1 Ni 58.71 24.7074 8.78111 1.67926 112 -0.774542
433 1 Ni 58.71 28.2943 0.0461506 7.09459 433 -0.721432
151 1 Ni 58.71 26.4089 10.4988 1.7948 151 0.205993
116 1 Ni 58.71 28.0941 8.71076 1.7904 116 0.559685
7 1 Ni 58.71 5.27625 -0.0100927 1.79341 0 0
2637 1 Ni 58.71 31.6827 17.5807 10.5402 2637 0.119721
120 1 Ni 58.71 31.6936 8.73127 1.75303 120 -0.0609911
155 1 Ni 58.71 29.9945 10.531 1.77694 155 -1.17105
61 1 Ni 58.71 17.6551 3.52083 0.0675412 61 -0.835085
39 1 Ni 58.71 33.4511 0.0532506 1.79339 39 0.0973576
159 1 Ni 58.71 33.4631 10.5756 1.75365 159 -0.311135
609 1 Ni 58.71 7.11148 0.0683397 10.5915 0 0
124 1 Ni 58.71 -0.00974259 12.3088 1.8992 0 0
102 1 Ni 58.71 19.3634 8.78884 0.0225455 102 0.265006
163 1 Ni 58.71 1.69869 14.0424 1.80234 0 0
631 1 Ni 58.71 26.3665 0.069253 12.2953 631 0.302174
128 1 Ni 58.71 3.48284 12.3845 1.70275 0 0
1185 1 Ni 58.71 21.1316 14.0257 17.5778 1185 0.1302
167 1 Ni 58.71 5.33818 14.0519 1.75368 0 0
132 1 Ni 58.71 7.13333 12.2288 1.76565 0 0
1081 1 Ni 58.71 0.0760065 7.02605 17.5688 0 0
2417 1 Ni 58.71 14.0143 17.5498 7.03501 0 0
136 1 Ni 58.71 10.5373 12.2795 1.78659 0 0
171 1 Ni 58.71 8.73384 13.9961 1.7819 0 0
1170 1 Ni 58.71 8.69134 15.9857 17.4526 0 0
419 1 Ni 58.71 15.8183 0.0196259 8.82469 0 0
175 1 Ni 58.71 12.3475 14.0438 1.69371 0 0
1030 1 Ni 58.71 26.4544 1.74149 17.511 1030 -0.363763
140 1 Ni 58.71 14.144 12.2182 1.7154 0 0
2411 1 Ni 58.71 8.87172 17.5481 8.81388 0 0
179 1 Ni 58.71 15.8667 14.0602 1.76299 0 0
144 1 Ni 58.71 17.5802 12.2625 1.72399 144 0.158883
1073 1 Ni 58.71 28.0991 3.59033 17.5367 1073 0.665907
629 1 Ni 58.71 24.6324 0.0971966 10.5129 629 0.226846
148 1 Ni 58.71 21.1529 12.2052 1.89818 148 -0.143991
183 1 Ni 58.71 19.2805 14.0199 1.64793 183 0.770662
401 1 Ni 58.71 0.0267703 0.0309933 6.93327 0 0
607 1 Ni 58.71 5.26284 0.0278601 12.2769 0 0
187 1 Ni 58.71 22.9292 14.0554 1.86981 187 -0.372613
833 1 Ni 58.71 28.1253 0.0312779 14.0805 833 0.571742
152 1 Ni 58.71 24.7003 12.2967 1.69871 152 -0.14483
2003 1 Ni 58.71 1.80437 17.5387 1.86016 0 0
191 1 Ni 58.71 26.4499 14.0993 1.68183 191 -0.646502
156 1 Ni 58.71 28.1458 12.3085 1.62362 156 0.118981
2201 1 Ni 58.71 35.1442 17.6028 3.53913 0 0
2433 1 Ni 58.71 28.2242 17.4375 7.07144 2433 0.12705
160 1 Ni 58.71 31.7036 12.2929 1.79833 160 0.354731
195 1 Ni 58.71 30.0011 14.1363 1.62773 195 -0.392898
1041 1 Ni 58.71 35.0913 3.53695 17.5927 0 0
109 1 Ni 58.71 24.6544 7.0631 0.0146959 109 0.0914033
199 1 Ni 58.71 33.5576 14.0304 1.83536 199 -1.01249
1149 1 Ni 58.71 24.5572 10.4988 17.5352 1149 -0.505281
164 1 Ni 58.71 0.0887611 15.8301 1.79844 0 0
58 1 Ni 58.71 15.7965 5.27228 -0.00895086 0 0
168 1 Ni 58.71 3.49065 15.8627 1.80587 0 0
172 1 Ni 58.71 7.04721 15.8425 1.82338 0 0
2005 1 Ni 58.71 3.61964 17.5304 0.0236722 0 0
176 1 Ni 58.71 10.5447 15.7398 1.80965 0 0
803 1 Ni 58.71 1.83962 0.000239103 15.9233 0 0
2613 1 Ni 58.71 10.5621 17.5971 10.5551 0 0
180 1 Ni 58.71 14.1078 15.8361 1.72175 0 0
184 1 Ni 58.71 17.5997 15.978 1.80873 184 0.261285
1166 1 Ni 58.71 5.2633 15.9686 17.5894 0 0
188 1 Ni 58.71 21.0707 15.8005 1.75895 188 0.0161417
417 1 Ni 58.71 14.0345 0.0100764 7.05469 0 0
170 1 Ni 58.71 8.88687 15.845 0.0582893 0 0
192 1 Ni 58.71 24.6612 15.7798 1.80729 192 0.150917
196 1 Ni 58.71 28.0845 15.8573 1.68091 196 0.737525
165 1 Ni 58.71 3.55797 14.0793 0.0596438 0 0
200 1 Ni 58.71 31.741 15.8792 1.81484 200 -0.0225409
895 1 Ni 58.71 12.26 7.09103 15.8406 0 0
991 1 Ni 58.71 26.3839 14.0937 15.8388 991 0.0288462
202 1 Ni 58.71 1.73683 1.7101 3.50797 0 0
153 1 Ni 58.71 28.131 10.5569 0.0454305 153 0.127127
204 1 Ni 58.71 35.1186 1.75001 5.18565 0 0
952 1 Ni 58.71 24.5956 12.2368 15.7747 952 0.350594
206 1 Ni 58.71 5.2495 1.78658 3.51278 0 0
987 1 Ni 58.71 22.891 14.0464 15.7649 987 -0.291199
208 1 Ni 58.71 3.51451 1.77655 5.15373 0 0
983 1 Ni 58.71 19.4003 14.0868 15.7641 983 0.207635
212 1 Ni 58.71 7.05569 1.66308 5.20825 0 0
210 1 Ni 58.71 8.77832 1.75493 3.61142 0 0
948 1 Ni 58.71 21.0468 12.2924 15.8355 948 0.0356201
2835 1 Ni 58.71 29.8463 17.5586 15.8355 2835 0.0468315
216 1 Ni 58.71 10.5775 1.78931 5.34595 0 0
214 1 Ni 58.71 12.1771 1.80378 3.56448 0 0
944 1 Ni 58.71 17.658 12.3939 15.8701 944 -0.475999
2209 1 Ni 58.71 7.15033 17.584 3.52598 0 0
218 1 Ni 58.71 15.851 1.66464 3.59447 0 0
827 1 Ni 58.71 22.9671 0.0185952 15.8479 827 -0.619484
220 1 Ni 58.71 14.0186 1.73217 5.23552 0 0
979 1 Ni 58.71 15.8834 14.1019 15.9198 0 0
224 1 Ni 58.71 17.583 1.72999 5.28688 224 0.366021
222 1 Ni 58.71 19.4411 1.71942 3.42662 222 -0.0231281
940 1 Ni 58.71 14.1096 12.367 15.9564 0 0
1006 1 Ni 58.71 5.16948 1.80511 17.5887 0 0
228 1 Ni 58.71 21.1333 1.80927 5.12396 228 0.531324
226 1 Ni 58.71 22.9256 1.82588 3.39881 226 -0.274151
975 1 Ni 58.71 12.3538 13.9841 15.9042 0 0
2237 1 Ni 58.71 31.5819 17.572 3.47483 2237 0.949047
230 1 Ni 58.71 26.3899 1.75943 3.48993 230 -0.536541
823 1 Ni 58.71 19.4578 0.0263223 15.9442 823 -0.594164
232 1 Ni 58.71 24.5216 1.82276 5.26768 232 0.964541
2813 1 Ni 58.71 10.5486 17.5009 14.059 0 0
236 1 Ni 58.71 28.2321 1.80317 5.26169 236 -0.294017
234 1 Ni 58.71 29.9906 1.79903 3.56312 234 -0.489086
971 1 Ni 58.71 8.68993 14.0493 15.8111 0 0
605 1 Ni 58.71 3.54915 0.0287222 10.5281 0 0
240 1 Ni 58.71 31.749 1.73007 5.24166 240 0.0575341
238 1 Ni 58.71 33.4246 1.75327 3.57777 238 0.234122
936 1 Ni 58.71 10.6017 12.2976 15.883 0 0
241 1 Ni 58.71 0.0689973 3.49238 3.46082 0 0
242 1 Ni 58.71 1.8343 5.22183 3.46115 0 0
243 1 Ni 58.71 1.80007 3.58481 5.21685 0 0
244 1 Ni 58.71 35.1914 5.29217 5.18834 0 0
245 1 Ni 58.71 3.55144 3.48914 3.40074 0 0
246 1 Ni 58.71 5.25435 5.31121 3.41115 0 0
247 1 Ni 58.71 5.21617 3.56853 5.25628 0 0
248 1 Ni 58.71 3.53281 5.29776 5.203 0 0
249 1 Ni 58.71 7.01446 3.52971 3.49625 0 0
252 1 Ni 58.71 7.11 5.26591 5.12423 0 0
250 1 Ni 58.71 8.81819 5.22099 3.52811 0 0
251 1 Ni 58.71 8.80878 3.4727 5.18095 0 0
253 1 Ni 58.71 10.619 3.55206 3.4942 0 0
256 1 Ni 58.71 10.5976 5.32453 5.24228 0 0
254 1 Ni 58.71 12.4835 5.2805 3.54667 0 0
255 1 Ni 58.71 12.2723 3.55467 5.28696 0 0
257 1 Ni 58.71 14.0281 3.48358 3.53459 0 0
258 1 Ni 58.71 15.882 5.29868 3.54483 0 0
259 1 Ni 58.71 15.842 3.50453 5.28242 0 0
260 1 Ni 58.71 14.1349 5.35509 5.30585 0 0
261 1 Ni 58.71 17.6697 3.39083 3.57799 261 -0.816071
264 1 Ni 58.71 17.5603 5.30316 5.25792 264 0.747422
262 1 Ni 58.71 19.3458 5.28803 3.45085 262 0.0745984
263 1 Ni 58.71 19.4263 3.54029 5.1315 263 -0.28967
265 1 Ni 58.71 21.2245 3.54886 3.46518 265 -0.650413
268 1 Ni 58.71 21.0366 5.31838 5.33572 268 0.746217
266 1 Ni 58.71 22.8176 5.33425 3.52616 266 0.534888
267 1 Ni 58.71 22.8444 3.59417 5.23109 267 -0.174441
269 1 Ni 58.71 24.6223 3.50525 3.42246 269 -0.189113
270 1 Ni 58.71 26.3533 5.23748 3.55076 270 0.441437
271 1 Ni 58.71 26.3726 3.52101 5.20054 271 0.018755
272 1 Ni 58.71 24.6277 5.27947 5.20004 272 -0.196253
273 1 Ni 58.71 28.1767 3.48964 3.4519 273 -0.426384
276 1 Ni 58.71 28.1225 5.20379 5.18871 276 0.419236
274 1 Ni 58.71 29.8777 5.25217 3.56778 274 0.705056
275 1 Ni 58.71 29.9952 3.49935 5.27135 275 0.151612
277 1 Ni 58.71 31.7374 3.54342 3.48937 277 -0.2238
280 1 Ni 58.71 31.7921 5.33637 5.251 280 -0.563962
278 1 Ni 58.71 33.4535 5.26562 3.41098 278 0.343931
279 1 Ni 58.71 33.5392 3.57811 5.23629 279 -0.776423
281 1 Ni 58.71 35.181 7.0361 3.41572 0 0
283 1 Ni 58.71 1.75731 7.05167 5.17334 0 0
285 1 Ni 58.71 3.52522 7.13184 3.379 0 0
287 1 Ni 58.71 5.16114 7.10011 5.20067 0 0
289 1 Ni 58.71 7.00717 7.06421 3.44947 0 0
291 1 Ni 58.71 8.76332 7.11187 5.26199 0 0
293 1 Ni 58.71 10.6095 7.01504 3.53388 0 0
295 1 Ni 58.71 12.4016 7.1542 5.26648 0 0
297 1 Ni 58.71 14.2148 7.05382 3.53826 0 0
299 1 Ni 58.71 15.8528 7.14377 5.36896 0 0
301 1 Ni 58.71 17.6875 7.1016 3.55186 301 -0.382858
303 1 Ni 58.71 19.4441 7.0871 5.32685 303 -0.906292
305 1 Ni 58.71 21.1763 6.98546 3.59509 305 -0.173588
307 1 Ni 58.71 22.9801 7.0803 5.3727 307 -0.84303
309 1 Ni 58.71 24.6102 6.99468 3.46258 309 0.0877338
311 1 Ni 58.71 26.3786 6.93157 5.27552 311 -0.0975435
313 1 Ni 58.71 28.1286 7.11831 3.5995 313 0.0280503
315 1 Ni 58.71 29.8271 7.06325 5.24844 315 1.02319
317 1 Ni 58.71 31.6392 7.01334 3.58615 317 0.327837
319 1 Ni 58.71 33.5589 7.06508 5.28996 319 -0.204942
282 1 Ni 58.71 1.82373 8.79964 3.37459 0 0
284 1 Ni 58.71 0.00141896 8.80606 5.18302 0 0
321 1 Ni 58.71 35.1806 10.5543 3.5063 0 0
323 1 Ni 58.71 1.68791 10.5894 5.30363 0 0
286 1 Ni 58.71 5.25788 8.79538 3.49429 0 0
288 1 Ni 58.71 3.40551 8.86168 5.23251 0 0
325 1 Ni 58.71 3.53729 10.4671 3.45256 0 0
327 1 Ni 58.71 5.27102 10.4945 5.2027 0 0
292 1 Ni 58.71 7.01128 8.80234 5.19723 0 0
329 1 Ni 58.71 7.083 10.4465 3.53321 0 0
290 1 Ni 58.71 8.81274 8.81697 3.46601 0 0
296 1 Ni 58.71 10.5021 8.7601 5.25742 0 0
331 1 Ni 58.71 8.70091 10.5048 5.35996 0 0
333 1 Ni 58.71 10.5475 10.4517 3.51066 0 0
294 1 Ni 58.71 12.3267 8.82275 3.51032 0 0
335 1 Ni 58.71 12.3162 10.4518 5.27652 0 0
298 1 Ni 58.71 15.9408 8.74034 3.49623 0 0
300 1 Ni 58.71 14.1482 8.86414 5.32695 0 0
337 1 Ni 58.71 14.1069 10.4867 3.55578 0 0
339 1 Ni 58.71 15.7752 10.5635 5.34928 0 0
304 1 Ni 58.71 17.6782 8.85002 5.29025 304 -0.296037
341 1 Ni 58.71 17.6319 10.4887 3.51381 341 -0.0323154
302 1 Ni 58.71 19.4149 8.76086 3.50723 302 0.045556
308 1 Ni 58.71 21.107 8.86782 5.31823 308 0.858084
343 1 Ni 58.71 19.384 10.5652 5.29085 343 0.0116797
345 1 Ni 58.71 21.1619 10.5546 3.59335 345 -0.0495757
306 1 Ni 58.71 22.967 8.82456 3.60363 306 -0.406026
347 1 Ni 58.71 23.0459 10.5626 5.28853 347 -1.16513
310 1 Ni 58.71 26.3266 8.79986 3.59563 310 0.28385
312 1 Ni 58.71 24.6907 8.80697 5.38497 312 0.14302
349 1 Ni 58.71 24.6783 10.5156 3.49122 349 -0.0699401
351 1 Ni 58.71 26.4239 10.5536 5.2276 351 0.0965351
316 1 Ni 58.71 28.1449 8.86143 5.17165 316 0.440091
353 1 Ni 58.71 28.2556 10.6035 3.46866 353 -0.791343
314 1 Ni 58.71 29.9713 8.88957 3.4672 314 -0.661188
320 1 Ni 58.71 31.6767 8.77063 5.17558 320 -0.0508356
355 1 Ni 58.71 29.8869 10.6127 5.26139 355 0.358616
357 1 Ni 58.71 31.6908 10.5153 3.46372 357 0.17302
318 1 Ni 58.71 33.4559 8.81178 3.55392 318 -0.446106
359 1 Ni 58.71 33.4071 10.5671 5.27231 359 0.231394
322 1 Ni 58.71 1.74294 12.1991 3.46404 0 0
324 1 Ni 58.71 35.1852 12.3394 5.30389 0 0
361 1 Ni 58.71 35.2124 14.0575 3.58725 0 0
363 1 Ni 58.71 1.79419 13.9952 5.22089 0 0
326 1 Ni 58.71 5.26957 12.2138 3.40087 0 0
328 1 Ni 58.71 3.49193 12.3034 5.11623 0 0
365 1 Ni 58.71 3.61058 14.1157 3.46838 0 0
367 1 Ni 58.71 5.17259 13.9962 5.24772 0 0
332 1 Ni 58.71 6.95792 12.2154 5.23869 0 0
369 1 Ni 58.71 7.05336 13.9739 3.57816 0 0
330 1 Ni 58.71 8.88959 12.3262 3.61724 0 0
336 1 Ni 58.71 10.6202 12.1871 5.33109 0 0
371 1 Ni 58.71 8.81299 14.0081 5.32512 0 0
373 1 Ni 58.71 10.5634 13.9937 3.52865 0 0
334 1 Ni 58.71 12.3901 12.2415 3.47468 0 0
375 1 Ni 58.71 12.3607 13.9882 5.29911 0 0
338 1 Ni 58.71 15.8676 12.2859 3.51463 0 0
340 1 Ni 58.71 14.1037 12.2931 5.18462 0 0
377 1 Ni 58.71 14.1597 14.0102 3.46507 0 0
379 1 Ni 58.71 15.8287 14.1007 5.19231 0 0
344 1 Ni 58.71 17.5822 12.3006 5.23369 344 0.619344
381 1 Ni 58.71 17.6071 14.1524 3.41592 381 0.0805862
342 1 Ni 58.71 19.327 12.3371 3.51608 342 0.0492621
348 1 Ni 58.71 21.1974 12.2868 5.32255 348 -0.41672
383 1 Ni 58.71 19.3299 14.1389 5.23112 383 0.151127
385 1 Ni 58.71 21.0903 14.0411 3.58769 385 0.268663
346 1 Ni 58.71 22.9288 12.2804 3.52893 346 0.12435
387 1 Ni 58.71 22.8831 14.0965 5.29671 387 0.593077
350 1 Ni 58.71 26.4647 12.3342 3.43406 350 -0.332541
352 1 Ni 58.71 24.6709 12.3337 5.25 352 0.338444
389 1 Ni 58.71 24.6907 14.0197 3.52824 389 -0.093976
391 1 Ni 58.71 26.4191 14.0497 5.17536 391 0.227404
356 1 Ni 58.71 28.1181 12.3231 5.22058 356 0.838778
393 1 Ni 58.71 28.1407 14.1135 3.47204 393 0.712961
354 1 Ni 58.71 29.9704 12.3673 3.43493 354 -0.347542
360 1 Ni 58.71 31.6725 12.3199 5.27844 360 0.242816
395 1 Ni 58.71 29.9455 14.0288 5.29801 395 -0.174635
397 1 Ni 58.71 31.737 14.2128 3.5235 397 -0.660007
358 1 Ni 58.71 33.4041 12.2337 3.51794 358 0.0387922
399 1 Ni 58.71 33.3339 14.1378 5.2704 399 0.953523
362 1 Ni 58.71 1.7091 15.9095 3.54 0 0
364 1 Ni 58.71 35.202 15.8433 5.31485 0 0
366 1 Ni 58.71 5.34538 15.8146 3.47048 0 0
368 1 Ni 58.71 3.54983 15.7483 5.22327 0 0
372 1 Ni 58.71 7.03344 15.8247 5.27907 0 0
370 1 Ni 58.71 8.84379 15.7355 3.56621 0 0
376 1 Ni 58.71 10.5635 15.7068 5.20057 0 0
374 1 Ni 58.71 12.3667 15.7991 3.45391 0 0
378 1 Ni 58.71 15.876 15.8828 3.41673 0 0
380 1 Ni 58.71 14.0364 15.7341 5.24437 0 0
384 1 Ni 58.71 17.6128 15.9067 5.27528 384 -0.294527
382 1 Ni 58.71 19.3734 15.8824 3.50404 382 -0.0653233
388 1 Ni 58.71 21.1633 15.865 5.17371 388 -0.684831
386 1 Ni 58.71 22.8915 15.8941 3.49736 386 -0.130127
390 1 Ni 58.71 26.4802 15.9244 3.48752 390 -0.620063
392 1 Ni 58.71 24.7163 15.8081 5.23762 392 -0.0416323
396 1 Ni 58.71 28.166 15.7894 5.23348 396 0.169679
394 1 Ni 58.71 29.8985 15.8333 3.51042 394 0.0802221
400 1 Ni 58.71 31.6671 15.8076 5.30671 400 0.0117745
398 1 Ni 58.71 33.4591 15.8752 3.54494 398 0.260974
932 1 Ni 58.71 6.92864 12.2747 15.8492 0 0
402 1 Ni 58.71 1.6718 1.75079 6.97829 0 0
431 1 Ni 58.71 26.4254 0.0246305 8.75236 431 0.636415
406 1 Ni 58.71 5.25533 1.79141 6.867 0 0
229 1 Ni 58.71 24.618 0.0752503 3.54164 229 0.0226975
410 1 Ni 58.71 8.78701 1.8511 7.03913 0 0
967 1 Ni 58.71 5.27852 14.1092 15.934 0 0
414 1 Ni 58.71 12.2424 1.81321 7.08339 0 0
928 1 Ni 58.71 3.4662 12.3218 15.8609 0 0
418 1 Ni 58.71 15.8186 1.72532 7.07976 0 0
963 1 Ni 58.71 1.79147 14.0107 15.9192 0 0
422 1 Ni 58.71 19.3718 1.76872 6.99527 422 -0.0863813
924 1 Ni 58.71 35.1433 12.3958 15.9241 0 0
426 1 Ni 58.71 22.8782 1.79739 7.0489 426 -0.598175
2429 1 Ni 58.71 24.649 17.5743 6.94941 2429 -0.0779065
430 1 Ni 58.71 26.4819 1.79545 6.96952 430 -0.083922
959 1 Ni 58.71 33.3845 10.6499 15.8984 959 0.0802553
434 1 Ni 58.71 30.0583 1.79693 7.00992 434 -0.314558
621 1 Ni 58.71 17.5845 0.000479951 10.5189 621 -0.163972
438 1 Ni 58.71 33.5168 1.8695 6.99117 438 -0.643712
441 1 Ni 58.71 0.103398 3.49892 6.97448 0 0
442 1 Ni 58.71 1.77598 5.26939 6.99711 0 0
445 1 Ni 58.71 3.46376 3.54704 6.94304 0 0
446 1 Ni 58.71 5.24491 5.39251 7.03617 0 0
449 1 Ni 58.71 7.07975 3.59634 6.86869 0 0
450 1 Ni 58.71 8.79507 5.28066 6.95811 0 0
453 1 Ni 58.71 10.5166 3.59976 6.95532 0 0
454 1 Ni 58.71 12.3569 5.32742 7.01315 0 0
457 1 Ni 58.71 14.1012 3.47518 6.99289 0 0
458 1 Ni 58.71 15.7957 5.23256 7.02408 0 0
461 1 Ni 58.71 17.6192 3.52078 7.00189 461 -0.099526
462 1 Ni 58.71 19.3585 5.18952 7.18107 462 0.216809
465 1 Ni 58.71 21.1205 3.4348 7.03064 465 0.135147
466 1 Ni 58.71 22.8793 5.39742 7.08958 466 -0.196974
469 1 Ni 58.71 24.4963 3.50452 6.95671 469 1.51552
470 1 Ni 58.71 26.5046 5.2772 7.0972 470 -0.395861
473 1 Ni 58.71 28.3286 3.57672 7.041 473 -1.14242
474 1 Ni 58.71 29.9974 5.2867 7.01619 474 0.172366
477 1 Ni 58.71 31.7083 3.57686 7.04859 477 0.508684
478 1 Ni 58.71 33.4263 5.26784 7.08233 478 1.30637
481 1 Ni 58.71 0.0524899 7.02793 7.10192 0 0
485 1 Ni 58.71 3.50747 7.07923 6.98973 0 0
489 1 Ni 58.71 6.99888 7.11164 6.93199 0 0
493 1 Ni 58.71 10.6626 7.10142 6.97951 0 0
497 1 Ni 58.71 14.1315 7.07191 7.05648 0 0
501 1 Ni 58.71 17.6161 6.94211 7.12735 501 -0.0670809
505 1 Ni 58.71 21.0873 7.12908 7.14939 505 0.143922
509 1 Ni 58.71 24.7154 7.03932 7.09624 509 0.100392
513 1 Ni 58.71 28.1682 6.98326 6.92999 513 0.216016
517 1 Ni 58.71 31.8682 6.99151 6.95215 517 -1.64242
482 1 Ni 58.71 1.75446 8.82462 7.11499 0 0
521 1 Ni 58.71 35.1809 10.5571 7.05728 0 0
486 1 Ni 58.71 5.24978 8.78228 7.04734 0 0
525 1 Ni 58.71 3.48171 10.5658 7.09874 0 0
529 1 Ni 58.71 7.0294 10.4461 7.0523 0 0
490 1 Ni 58.71 8.75423 8.71304 7.07601 0 0
533 1 Ni 58.71 10.5042 10.4353 7.10315 0 0
494 1 Ni 58.71 12.3892 8.83122 7.03515 0 0
498 1 Ni 58.71 15.9395 8.8492 7.03077 0 0
537 1 Ni 58.71 14.0972 10.578 7.02427 0 0
541 1 Ni 58.71 17.6767 10.6249 7.04748 541 -0.206737
502 1 Ni 58.71 19.4003 8.91198 7.05249 502 -0.571762
545 1 Ni 58.71 21.1123 10.5067 7.10216 545 0.456909
506 1 Ni 58.71 22.8639 8.8387 7.11766 506 0.441042
510 1 Ni 58.71 26.5568 8.75976 7.00127 510 -1.14341
549 1 Ni 58.71 24.7515 10.6464 7.00421 549 -0.654524
553 1 Ni 58.71 28.1848 10.5261 7.07075 553 0.440472
514 1 Ni 58.71 29.9604 8.61338 6.98417 514 0.132857
557 1 Ni 58.71 31.6337 10.5265 7.00032 557 0.800149
518 1 Ni 58.71 33.4436 8.74743 7.00044 518 0.341792
522 1 Ni 58.71 1.75069 12.3106 7.09558 0 0
561 1 Ni 58.71 35.1695 14.1435 6.95269 0 0
526 1 Ni 58.71 5.25047 12.2435 6.93033 0 0
565 1 Ni 58.71 3.42882 14.0032 7.08976 0 0
569 1 Ni 58.71 6.90654 14.1463 6.9737 0 0
530 1 Ni 58.71 8.74661 12.2645 7.03983 0 0
573 1 Ni 58.71 10.5596 13.9835 6.96638 0 0
534 1 Ni 58.71 12.2776 12.2254 7.0652 0 0
538 1 Ni 58.71 15.948 12.3359 6.92014 0 0
577 1 Ni 58.71 14.0641 13.9646 6.97524 0 0
581 1 Ni 58.71 17.6437 14.2171 6.95759 581 -0.23123
542 1 Ni 58.71 19.4002 12.3384 7.04912 542 -0.163992
585 1 Ni 58.71 21.1494 14.1052 6.9376 585 -0.333408
546 1 Ni 58.71 22.936 12.2749 7.03732 546 -0.138933
550 1 Ni 58.71 26.4898 12.2524 6.98453 550 -0.574719
589 1 Ni 58.71 24.7211 14.0856 6.99662 589 -0.578037
593 1 Ni 58.71 28.1848 13.9672 7.05426 593 -0.0197819
554 1 Ni 58.71 30.0046 12.2208 7.02202 554 -0.889853
597 1 Ni 58.71 31.6816 14.1066 7.1485 597 0.165412
558 1 Ni 58.71 33.4326 12.3775 7.06235 558 -0.208042
562 1 Ni 58.71 1.73913 15.883 6.99158 0 0
566 1 Ni 58.71 5.13171 15.8285 7.05653 0 0
570 1 Ni 58.71 8.83513 15.7594 7.12087 0 0
574 1 Ni 58.71 12.3148 15.7182 7.05767 0 0
578 1 Ni 58.71 15.8029 15.8423 7.06121 0 0
582 1 Ni 58.71 19.4138 15.8924 7.03188 582 0.102978
586 1 Ni 58.71 22.8598 15.889 6.91388 586 0.183298
590 1 Ni 58.71 26.4938 15.7356 7.1204 590 -0.585912
594 1 Ni 58.71 29.9501 15.7403 6.97669 594 -0.481171
598 1 Ni 58.71 33.4824 15.8444 7.01726 598 -0.732263
955 1 Ni 58.71 29.9787 10.4586 15.8759 955 -0.492547
404 1 Ni 58.71 35.1571 1.79313 8.80169 0 0
920 1 Ni 58.71 31.7236 8.85307 15.8043 920 -0.0218743
602 1 Ni 58.71 1.72103 1.83198 10.6467 0 0
619 1 Ni 58.71 15.8077 0.0382832 12.3176 0 0
408 1 Ni 58.71 3.47732 1.6632 8.73393 0 0
916 1 Ni 58.71 28.1773 8.78447 15.844 916 -0.500513
606 1 Ni 58.71 5.27208 1.74683 10.4851 0 0
412 1 Ni 58.71 6.95638 1.8303 8.70253 0 0
951 1 Ni 58.71 26.3312 10.4518 15.9041 951 0.860483
2821 1 Ni 58.71 17.5472 17.5667 14.157 2821 0.728534
416 1 Ni 58.71 10.5273 1.90822 8.83029 0 0
610 1 Ni 58.71 8.77147 1.83068 10.5219 0 0
134 1 Ni 58.71 12.3664 12.3026 0.0574518 0 0
912 1 Ni 58.71 24.5437 8.74096 15.9121 912 0.349725
614 1 Ni 58.71 12.267 1.80126 10.5598 0 0
2233 1 Ni 58.71 28.2599 17.5714 3.48468 2233 -0.663522
420 1 Ni 58.71 14.1183 1.8512 8.87534 0 0
947 1 Ni 58.71 22.7959 10.6105 15.8111 947 -0.0328573
618 1 Ni 58.71 15.8391 1.83407 10.5172 0 0
424 1 Ni 58.71 17.5604 1.8461 8.68678 424 0.158761
617 1 Ni 58.71 14.017 0.0869414 10.617 0 0
943 1 Ni 58.71 19.2282 10.5445 15.8428 943 0.419164
428 1 Ni 58.71 21.0787 1.66846 8.83083 428 0.385
622 1 Ni 58.71 19.3688 1.69445 10.5251 622 -0.46564
825 1 Ni 58.71 21.2219 0.0442759 14.0948 825 -1.18613
1086 1 Ni 58.71 5.32831 8.83588 17.6102 0 0
626 1 Ni 58.71 22.9042 1.73911 10.5771 626 -0.504668
613 1 Ni 58.71 10.4209 0.139375 10.4515 0 0
432 1 Ni 58.71 24.6343 1.78688 8.83703 432 0.258067
425 1 Ni 58.71 21.0634 0.0520503 7.0296 425 0.388432
630 1 Ni 58.71 26.3689 1.77078 10.5742 630 0.367153
436 1 Ni 58.71 28.3289 1.83052 8.7617 436 -1.12
908 1 Ni 58.71 20.9589 8.85919 15.7975 908 0.753592
904 1 Ni 58.71 17.4331 8.82441 15.8051 904 0.516572
440 1 Ni 58.71 31.7517 1.71524 8.79008 440 0.130675
634 1 Ni 58.71 29.9374 1.81906 10.5879 634 0.695697
2011 1 Ni 58.71 8.86372 17.5874 1.80778 0 0
939 1 Ni 58.71 15.8307 10.7329 15.8753 0 0
638 1 Ni 58.71 33.5143 1.68913 10.587 638 -0.686065
443 1 Ni 58.71 1.76862 3.38616 8.8085 0 0
444 1 Ni 58.71 0.0319471 5.30175 8.80746 0 0
641 1 Ni 58.71 0.0210232 3.54248 10.5137 0 0
642 1 Ni 58.71 1.70404 5.20786 10.4541 0 0
447 1 Ni 58.71 5.24695 3.53169 8.67169 0 0
448 1 Ni 58.71 3.54206 5.28101 8.83125 0 0
645 1 Ni 58.71 3.59815 3.5406 10.5412 0 0
646 1 Ni 58.71 5.34348 5.33221 10.5138 0 0
452 1 Ni 58.71 7.06431 5.36652 8.78141 0 0
649 1 Ni 58.71 6.98919 3.53004 10.5598 0 0
451 1 Ni 58.71 8.75649 3.57655 8.8138 0 0
456 1 Ni 58.71 10.4771 5.32847 8.79918 0 0
650 1 Ni 58.71 8.82214 5.32894 10.6424 0 0
653 1 Ni 58.71 10.5293 3.55046 10.5834 0 0
455 1 Ni 58.71 12.2932 3.62028 8.77104 0 0
654 1 Ni 58.71 12.229 5.39602 10.5459 0 0
459 1 Ni 58.71 15.818 3.59717 8.7603 0 0
460 1 Ni 58.71 14.0604 5.36065 8.79543 0 0
657 1 Ni 58.71 14.0704 3.61184 10.5509 0 0
658 1 Ni 58.71 15.8891 5.27214 10.6018 0 0
464 1 Ni 58.71 17.5552 5.19149 8.77063 464 0.412926
661 1 Ni 58.71 17.6644 3.53018 10.5057 661 -0.442177
463 1 Ni 58.71 19.3339 3.43124 8.83256 463 0.704672
468 1 Ni 58.71 21.1472 5.24073 8.77151 468 -0.258852
662 1 Ni 58.71 19.4121 5.26164 10.5539 662 -0.303785
665 1 Ni 58.71 21.106 3.48005 10.5295 665 0.412286
467 1 Ni 58.71 22.9604 3.46417 8.80889 467 -1.09946
666 1 Ni 58.71 22.9008 5.25446 10.4173 666 -0.187572
471 1 Ni 58.71 26.3929 3.43932 8.76868 471 0.465021
472 1 Ni 58.71 24.7332 5.22705 8.6767 472 -0.558629
669 1 Ni 58.71 24.6095 3.63685 10.5669 669 0.581068
670 1 Ni 58.71 26.342 5.26912 10.5447 670 0.790507
476 1 Ni 58.71 28.3255 5.26448 8.7702 476 -0.808691
673 1 Ni 58.71 28.1286 3.59486 10.5787 673 0.137967
475 1 Ni 58.71 30.0097 3.49499 8.74831 475 0.464585
480 1 Ni 58.71 31.7056 5.30397 8.80634 480 0.569739
674 1 Ni 58.71 30.0156 5.19786 10.5282 674 -0.537659
677 1 Ni 58.71 31.8159 3.49317 10.5779 677 -0.579989
479 1 Ni 58.71 33.4874 3.43785 8.80543 479 -0.297469
678 1 Ni 58.71 33.4616 5.2516 10.5583 678 0.446081
483 1 Ni 58.71 1.81269 6.94524 8.80522 0 0
681 1 Ni 58.71 0.12454 7.09951 10.6021 0 0
487 1 Ni 58.71 5.16727 7.07419 8.82393 0 0
685 1 Ni 58.71 3.42772 6.92868 10.7151 0 0
689 1 Ni 58.71 7.06734 6.95553 10.5207 0 0
491 1 Ni 58.71 8.82323 7.04545 8.86244 0 0
693 1 Ni 58.71 10.5198 7.10057 10.6044 0 0
495 1 Ni 58.71 12.2569 7.11908 8.79429 0 0
499 1 Ni 58.71 15.8768 7.01956 8.81101 0 0
697 1 Ni 58.71 14.0405 7.00025 10.5959 0 0
701 1 Ni 58.71 17.6269 7.03147 10.5862 701 -0.186941
503 1 Ni 58.71 19.2874 7.0404 8.77351 503 0.592222
705 1 Ni 58.71 21.1354 7.01973 10.4995 705 -0.192779
507 1 Ni 58.71 22.888 7.06315 8.82272 507 0.167374
511 1 Ni 58.71 26.5194 7.01127 8.81562 511 -0.487532
709 1 Ni 58.71 24.6403 7.01089 10.5464 709 0.208145
713 1 Ni 58.71 28.217 7.05095 10.4901 713 0.332797
515 1 Ni 58.71 30.0545 7.02987 8.77649 515 -0.781888
717 1 Ni 58.71 31.6829 6.98264 10.5857 717 0.114574
519 1 Ni 58.71 33.4882 7.11844 8.82188 519 0.0924662
484 1 Ni 58.71 0.0564344 8.86013 8.82069 0 0
523 1 Ni 58.71 1.70161 10.5817 8.8933 0 0
682 1 Ni 58.71 1.75108 8.78232 10.5861 0 0
721 1 Ni 58.71 35.1737 10.4093 10.626 0 0
488 1 Ni 58.71 3.48375 8.81648 8.86865 0 0
527 1 Ni 58.71 5.22084 10.5445 8.81016 0 0
686 1 Ni 58.71 5.17077 8.78961 10.5526 0 0
725 1 Ni 58.71 3.5555 10.4476 10.5413 0 0
492 1 Ni 58.71 7.00482 8.70756 8.77724 0 0
729 1 Ni 58.71 6.91801 10.5597 10.5912 0 0
496 1 Ni 58.71 10.5975 8.7164 8.84061 0 0
531 1 Ni 58.71 8.86002 10.5111 8.8884 0 0
690 1 Ni 58.71 8.73188 8.7991 10.6174 0 0
733 1 Ni 58.71 10.512 10.457 10.6225 0 0
535 1 Ni 58.71 12.2979 10.5274 8.79903 0 0
694 1 Ni 58.71 12.2908 8.89693 10.5722 0 0
500 1 Ni 58.71 14.0879 8.81551 8.82955 0 0
539 1 Ni 58.71 15.861 10.5643 8.75462 0 0
698 1 Ni 58.71 15.8442 8.76689 10.5779 0 0
737 1 Ni 58.71 14.1224 10.488 10.4288 0 0
504 1 Ni 58.71 17.6614 8.91841 8.78178 504 -0.316427
741 1 Ni 58.71 17.5832 10.5207 10.635 741 -0.0507293
508 1 Ni 58.71 21.1684 8.80799 8.8541 508 -0.721227