ITEM: TIMESTEP
800
ITEM: NUMBER OF ATOMS
4000
ITEM: BOX BOUNDS pp pp pp
0.0000000000000000e+00 3.5200000000000003e+01
0.0000000000000000e+00 3.5200000000000003e+01
0.0000000000000000e+00 3.5200000000000003e+01
ITEM: ATOMS id type element mass x y z c_1[1] c_1[2]
1000 1 Ni 58.71 31.7655 15.8407 15.7782 1000 -0.709721
2803 1 Ni 58.71 1.70035 17.5392 15.7722 0 0
996 1 Ni 58.71 28.1577 15.8161 15.8349 996 -0.0203934
4 1 Ni 58.71 35.1526 1.76224 1.77172 0 0
992 1 Ni 58.71 24.665 15.8541 15.8215 992 -0.158423
25 1 Ni 58.71 21.1242 0.093429 0.0666959 25 -0.205999
988 1 Ni 58.71 21.2361 15.8177 15.8589 988 -0.160705
8 1 Ni 58.71 3.48865 1.88718 1.83575 0 0
984 1 Ni 58.71 17.6 15.629 15.8679 984 -0.27733
12 1 Ni 58.71 6.99634 1.88654 1.8817 0 0
7 1 Ni 58.71 5.28626 0.190786 1.70295 0 0
980 1 Ni 58.71 14.0252 15.8406 15.9786 0 0
976 1 Ni 58.71 10.5497 15.7868 15.8403 0 0
16 1 Ni 58.71 10.5588 1.81852 1.69062 0 0
3 1 Ni 58.71 1.7747 0.147049 1.82008 0 0
972 1 Ni 58.71 6.99906 15.8115 15.8258 0 0
106 1 Ni 58.71 22.9023 8.87464 0.0699775 106 -0.0278164
2239 1 Ni 58.71 33.3367 17.5838 5.37756 2239 0.0827573
968 1 Ni 58.71 3.61996 15.8037 15.7704 0 0
20 1 Ni 58.71 14.1204 1.69173 1.70375 0 0
964 1 Ni 58.71 0.0939761 15.7489 15.8068 0 0
24 1 Ni 58.71 17.6305 1.73999 1.86513 24 0.0458441
2225 1 Ni 58.71 21.0478 17.587 3.5444 2225 0.591512
999 1 Ni 58.71 33.4529 14.1438 15.7913 999 0.228956
995 1 Ni 58.71 30.0048 14.2003 15.884 995 -0.197452
28 1 Ni 58.71 21.1055 1.84701 1.72409 28 0.357625
31 1 Ni 58.71 26.3914 0.0506772 1.80336 31 0.0791835
89 1 Ni 58.71 6.95492 7.09933 0.0666816 0 0
15 1 Ni 58.71 12.3281 0.0792517 1.71895 0 0
2035 1 Ni 58.71 29.8677 17.5675 1.70865 2035 0.379992
960 1 Ni 58.71 31.7964 12.3833 15.7896 960 -0.981104
32 1 Ni 58.71 24.5704 1.82697 1.8007 32 1.06076
956 1 Ni 58.71 28.1308 12.456 15.781 956 0.485073
36 1 Ni 58.71 28.1779 1.77001 1.84095 36 0.495455
113 1 Ni 58.71 28.183 7.14261 0.084181 113 -0.490775
2825 1 Ni 58.71 21.0905 17.5586 14.2308 2825 -0.190356
2823 1 Ni 58.71 19.3022 17.4704 15.8051 2823 -0.0731696
40 1 Ni 58.71 31.6859 1.6759 1.63831 40 0.0282291
29 1 Ni 58.71 24.6993 0.0730324 0.0172074 29 0.171125
18 1 Ni 58.71 15.9649 1.77897 0.0915783 0 0
1182 1 Ni 58.71 19.4637 15.7276 17.5102 1182 -0.255414
69 1 Ni 58.71 24.7133 3.4531 -0.00317524 69 -0.259469
43 1 Ni 58.71 1.68929 3.56416 1.80383 0 0
44 1 Ni 58.71 35.1498 5.24539 1.78969 0 0
207 1 Ni 58.71 5.3368 -0.0216239 5.33942 0 0
86 1 Ni 58.71 5.38046 8.83965 0.0363496 0 0
47 1 Ni 58.71 5.20825 3.62648 1.7554 0 0
48 1 Ni 58.71 3.46603 5.35794 1.75459 0 0
2219 1 Ni 58.71 15.8685 17.5861 5.33934 0 0
52 1 Ni 58.71 7.05665 5.22452 1.80618 0 0
27 1 Ni 58.71 22.9651 0.0167249 1.70956 27 0.0106182
51 1 Ni 58.71 8.84854 3.55919 1.7075 0 0
11 1 Ni 58.71 8.77176 -0.00151091 1.80882 0 0
56 1 Ni 58.71 10.4586 5.33425 1.785 0 0
2837 1 Ni 58.71 31.6285 17.5994 14.0666 2837 0.267127
55 1 Ni 58.71 12.3793 3.57017 1.80835 0 0
178 1 Ni 58.71 15.8863 15.8023 0.0215351 0 0
117 1 Ni 58.71 31.6855 7.18609 0.096145 117 -0.0980127
59 1 Ni 58.71 15.9147 3.42781 1.85599 0 0
60 1 Ni 58.71 14.1279 5.38029 1.69392 0 0
26 1 Ni 58.71 22.8714 1.73315 0.065483 26 0.313645
64 1 Ni 58.71 17.5796 5.27643 1.79335 64 0.0116466
2025 1 Ni 58.71 21.2265 17.5482 0.142296 2025 -0.849394
63 1 Ni 58.71 19.3949 3.65412 1.8287 63 -0.0836588
201 1 Ni 58.71 0.0052046 0.059589 3.59306 0 0
68 1 Ni 58.71 21.0797 5.41716 1.70317 68 0.658027
2605 1 Ni 58.71 3.60871 17.5956 10.5364 0 0
67 1 Ni 58.71 22.8747 3.57296 1.70805 67 -0.662705
2815 1 Ni 58.71 12.2251 17.589 15.7552 0 0
1054 1 Ni 58.71 12.3323 5.26949 17.5303 0 0
71 1 Ni 58.71 26.4508 3.52353 1.73306 71 -0.302404
72 1 Ni 58.71 24.5408 5.2667 1.65344 72 1.11918
2817 1 Ni 58.71 13.9947 17.5086 14.0215 0 0
76 1 Ni 58.71 28.1319 5.36801 1.73529 76 -0.31117
2609 1 Ni 58.71 7.08737 17.5943 10.5636 0 0
75 1 Ni 58.71 29.9116 3.45289 1.7241 75 0.499282
2405 1 Ni 58.71 3.56287 17.5853 7.08104 0 0
80 1 Ni 58.71 31.6525 5.33742 1.70197 80 -0.344127
154 1 Ni 58.71 29.9791 12.3734 0.0592692 154 -0.0071047
79 1 Ni 58.71 33.2964 3.53575 1.71465 79 0.593703
46 1 Ni 58.71 5.15403 5.25219 0.082437 0 0
83 1 Ni 58.71 1.66066 7.07956 1.77238 0 0
66 1 Ni 58.71 22.8343 5.29535 -0.00270277 66 0.470048
87 1 Ni 58.71 5.28727 6.95378 1.8726 0 0
2023 1 Ni 58.71 19.4801 17.5818 1.81659 2023 -1.2895
91 1 Ni 58.71 8.68763 7.1077 1.78132 0 0
182 1 Ni 58.71 19.4934 15.865 0.0388741 182 -1.60776
95 1 Ni 58.71 12.2811 7.12446 1.8717 0 0
1165 1 Ni 58.71 3.49205 14.1321 17.5177 0 0
99 1 Ni 58.71 15.8547 7.10272 1.73937 0 0
2619 1 Ni 58.71 15.8551 17.5291 12.3928 0 0
103 1 Ni 58.71 19.3554 7.108 1.73773 103 -0.404112
134 1 Ni 58.71 12.3797 12.3747 0.11107 0 0
107 1 Ni 58.71 23.0436 7.05402 1.76807 107 -1.68454
205 1 Ni 58.71 3.58756 0.0955963 3.58355 0 0
111 1 Ni 58.71 26.2524 7.05308 1.83104 111 0.933337
209 1 Ni 58.71 7.05315 0.205301 3.5998 0 0
115 1 Ni 58.71 29.8885 7.01309 1.87488 115 0.437626
429 1 Ni 58.71 24.59 0.0185373 7.17801 429 -0.243946
119 1 Ni 58.71 33.3685 7.03761 1.79193 119 1.01256
174 1 Ni 58.71 12.3824 15.9556 0.0838046 0 0
84 1 Ni 58.71 35.1588 8.90864 1.9063 0 0
823 1 Ni 58.71 19.3248 0.020255 15.9713 823 0.27288
123 1 Ni 58.71 1.76415 10.5139 1.89145 0 0
161 1 Ni 58.71 35.147 14.0349 0.0371421 0 0
88 1 Ni 58.71 3.5186 8.82498 1.78792 0 0
118 1 Ni 58.71 33.4407 8.80708 0.110439 118 0.231618
127 1 Ni 58.71 5.27997 10.5934 1.67497 0 0
92 1 Ni 58.71 7.09708 8.97192 1.69758 0 0
54 1 Ni 58.71 12.3378 5.28942 0.0363493 0 0
609 1 Ni 58.71 7.05652 0.0240279 10.5238 0 0
96 1 Ni 58.71 10.5043 8.75253 1.80714 0 0
131 1 Ni 58.71 8.71853 10.6085 1.75907 0 0
2201 1 Ni 58.71 35.0278 17.5612 3.65611 0 0
203 1 Ni 58.71 1.76766 0.0911972 5.33708 0 0
135 1 Ni 58.71 12.2384 10.5449 1.69731 0 0
213 1 Ni 58.71 10.5792 0.0553459 3.4383 0 0
100 1 Ni 58.71 14.0276 8.81459 1.82384 0 0
153 1 Ni 58.71 28.1914 10.5985 0.0563324 153 0.34752
139 1 Ni 58.71 15.8178 10.546 1.71817 0 0
104 1 Ni 58.71 17.6096 8.84308 1.80451 104 -0.0398351
821 1 Ni 58.71 17.5675 0.0314897 14.1674 821 0.300196
166 1 Ni 58.71 5.28167 15.9231 0.0936851 0 0
108 1 Ni 58.71 21.0718 8.81783 1.77788 108 0.984166
143 1 Ni 58.71 19.4068 10.4752 1.77407 143 -0.544945
2819 1 Ni 58.71 15.8102 17.5411 15.8249 0 0
231 1 Ni 58.71 26.2951 0.197737 5.28354 231 0.65165
147 1 Ni 58.71 22.979 10.5443 1.91725 147 -0.899577
227 1 Ni 58.71 22.9431 -0.00215338 5.23718 227 -0.562482
112 1 Ni 58.71 24.6503 8.80019 1.764 112 0.180952
110 1 Ni 58.71 26.3737 8.86292 0.00607248 110 0.331204
151 1 Ni 58.71 26.3669 10.6161 1.73903 151 0.504918
116 1 Ni 58.71 28.2147 8.84194 1.78839 116 -0.499614
2417 1 Ni 58.71 14.2618 17.4619 7.10374 0 0
1197 1 Ni 58.71 31.7531 14.0115 17.5973 1197 -0.423397
120 1 Ni 58.71 31.6817 8.81206 1.86211 120 -0.523353
155 1 Ni 58.71 29.9733 10.466 1.80424 155 -0.398393
2821 1 Ni 58.71 17.5537 17.5768 14.0598 2821 -0.446758
39 1 Ni 58.71 33.4966 0.0327908 1.73366 39 -0.563408
159 1 Ni 58.71 33.4179 10.5506 1.76967 159 -0.11538
2625 1 Ni 58.71 20.9708 17.6047 10.6556 2625 0.422194
124 1 Ni 58.71 35.1898 12.2525 1.83449 0 0
129 1 Ni 58.71 7.01616 10.7025 0.0545632 0 0
163 1 Ni 58.71 1.70302 14.0055 1.81115 0 0
2427 1 Ni 58.71 22.6967 17.5208 8.88215 2427 1.49723
128 1 Ni 58.71 3.46619 12.3446 1.78716 0 0
633 1 Ni 58.71 28.1369 0.0588412 10.5053 633 -0.687814
167 1 Ni 58.71 5.22081 14.1803 1.81262 0 0
132 1 Ni 58.71 6.92884 12.5219 1.80062 0 0
158 1 Ni 58.71 33.4212 12.3184 -0.006312 158 0.602821
2429 1 Ni 58.71 24.5618 17.5974 7.06195 2429 -0.13699
136 1 Ni 58.71 10.5416 12.4351 1.78828 0 0
171 1 Ni 58.71 8.79494 14.1244 1.61372 0 0
2801 1 Ni 58.71 0.0955941 17.5878 14.1688 0 0
1153 1 Ni 58.71 28.2303 10.5484 17.5345 1153 -0.426131
175 1 Ni 58.71 12.3167 14.0967 1.76953 0 0
186 1 Ni 58.71 22.7813 15.7908 0.144261 186 0.990503
140 1 Ni 58.71 14.0617 12.2127 1.79641 0 0
1029 1 Ni 58.71 24.6582 0.0425126 17.487 1029 -0.592968
179 1 Ni 58.71 15.8123 14.0919 1.86011 0 0
144 1 Ni 58.71 17.4674 12.2722 1.87899 144 1.13316
9 1 Ni 58.71 7.13223 0.126977 0.0560051 0 0
3021 1 Ni 58.71 17.684 17.5615 17.5951 3021 -0.544636
148 1 Ni 58.71 21.1732 12.3063 1.85253 148 -0.156428
183 1 Ni 58.71 19.2873 14.0969 1.78333 183 0.0255561
1190 1 Ni 58.71 26.4349 15.8549 17.5854 1190 -0.542093
1157 1 Ni 58.71 31.528 10.5754 17.4959 1157 0.777378
187 1 Ni 58.71 22.8631 14.0612 1.71664 187 0.419054
2 1 Ni 58.71 1.79139 1.88237 0.0327246 0 0
152 1 Ni 58.71 24.6834 12.3432 1.73236 152 -0.307106
1133 1 Ni 58.71 10.4716 10.4824 17.5188 0 0
191 1 Ni 58.71 26.3977 14.1122 1.73177 191 -0.265382
156 1 Ni 58.71 28.1735 12.4087 1.65645 156 -0.449296
157 1 Ni 58.71 31.7341 10.5854 0.0442734 157 -0.183502
1162 1 Ni 58.71 1.74721 15.7771 17.5385 0 0
160 1 Ni 58.71 31.6303 12.2037 1.8597 160 0.737524
195 1 Ni 58.71 29.9333 14.075 1.61987 195 0.0630171
403 1 Ni 58.71 1.85346 0.000627458 8.91407 0 0
1154 1 Ni 58.71 29.851 12.3426 17.5765 1154 0.367518
199 1 Ni 58.71 33.5834 14.0369 1.85026 199 -1.53117
1125 1 Ni 58.71 3.60779 10.516 17.5634 0 0
164 1 Ni 58.71 35.2022 15.8621 1.92474 0 0
1114 1 Ni 58.71 29.9389 8.71332 17.5173 1114 0.0731712
168 1 Ni 58.71 3.41195 15.8743 1.75709 0 0
172 1 Ni 58.71 7.00588 15.8228 1.82626 0 0
35 1 Ni 58.71 29.9826 0.00716496 1.65427 35 -0.772189
176 1 Ni 58.71 10.5369 15.8957 1.76472 0 0
803 1 Ni 58.71 1.73743 0.107967 15.8492 0 0
1034 1 Ni 58.71 29.9024 1.66647 17.5807 1034 0.629424
180 1 Ni 58.71 14.1197 15.9013 1.84031 0 0
184 1 Ni 58.71 17.6242 15.9303 1.74613 184 -0.078279
1050 1 Ni 58.71 8.85111 5.25862 17.5297 0 0
188 1 Ni 58.71 21.0383 15.8567 1.80624 188 1.01084
145 1 Ni 58.71 21.1899 10.5546 0.048326 145 -0.605129
2011 1 Ni 58.71 8.72002 17.5983 1.76616 0 0
192 1 Ni 58.71 24.705 16.0575 1.82522 192 -0.763779
196 1 Ni 58.71 28.1286 15.8367 1.66064 196 -0.0766512
1014 1 Ni 58.71 12.3355 1.62215 17.5173 0 0
200 1 Ni 58.71 31.7166 15.7867 1.84912 200 0.239426
895 1 Ni 58.71 12.2974 6.94294 15.9038 0 0
991 1 Ni 58.71 26.4166 14.0649 15.9033 991 -0.642771
202 1 Ni 58.71 1.78361 1.88701 3.56849 0 0
605 1 Ni 58.71 3.72949 0.0251282 10.5517 0 0
204 1 Ni 58.71 35.1249 1.79184 5.32687 0 0
952 1 Ni 58.71 24.5559 12.2546 15.8081 952 0.960378
206 1 Ni 58.71 5.32181 1.89257 3.6025 0 0
987 1 Ni 58.71 22.936 14.0714 15.941 987 -0.10634
208 1 Ni 58.71 3.51881 1.75345 5.35577 0 0
983 1 Ni 58.71 19.3747 14.0369 15.7685 983 0.238281
212 1 Ni 58.71 7.09322 1.72051 5.3532 0 0
210 1 Ni 58.71 8.81259 1.84658 3.55229 0 0
948 1 Ni 58.71 21.1301 12.287 15.8613 948 -0.38327
2637 1 Ni 58.71 31.7121 17.5685 10.676 2637 0.0687878
216 1 Ni 58.71 10.5921 1.78662 5.17195 0 0
214 1 Ni 58.71 12.4184 1.68812 3.51623 0 0
944 1 Ni 58.71 17.5135 12.2952 15.9386 944 0.646467
437 1 Ni 58.71 31.7152 0.112845 7.06569 437 -0.722269
218 1 Ni 58.71 15.7954 1.7394 3.55442 0 0
407 1 Ni 58.71 5.18116 0.0301673 8.79964 0 0
220 1 Ni 58.71 14.0753 1.67459 5.27621 0 0
979 1 Ni 58.71 15.759 13.941 15.8194 0 0
224 1 Ni 58.71 17.6027 1.74739 5.20353 224 0.422233
222 1 Ni 58.71 19.4051 1.79762 3.40182 222 -0.0472075
940 1 Ni 58.71 14.0305 12.3563 15.944 0 0
62 1 Ni 58.71 19.3237 5.29475 0.0366868 62 0.365563
228 1 Ni 58.71 21.0777 1.67481 5.28448 228 0.233136
226 1 Ni 58.71 22.8747 1.74594 3.51486 226 -0.30799
975 1 Ni 58.71 12.2514 14.1119 15.9002 0 0
1178 1 Ni 58.71 15.8965 15.823 17.5 0 0
230 1 Ni 58.71 26.4689 1.903 3.48699 230 -1.04745
1061 1 Ni 58.71 17.556 3.60139 17.5492 1061 0.554362
232 1 Ni 58.71 24.5521 1.89941 5.21928 232 0.303423
2835 1 Ni 58.71 29.8452 17.5936 15.873 2835 0.607807
236 1 Ni 58.71 28.2321 1.78747 5.13189 236 -0.256558
234 1 Ni 58.71 29.966 1.75268 3.57899 234 0.496551
971 1 Ni 58.71 8.7639 14.0488 15.7914 0 0
621 1 Ni 58.71 17.5582 0.0548071 10.5669 621 -0.130104
240 1 Ni 58.71 31.6445 1.74384 5.33141 240 0.156729
238 1 Ni 58.71 33.2628 1.86118 3.54835 238 1.0021
936 1 Ni 58.71 10.4926 12.3698 15.8373 0 0
241 1 Ni 58.71 35.1693 3.535 3.5118 0 0
242 1 Ni 58.71 1.7793 5.30093 3.60761 0 0
243 1 Ni 58.71 1.7601 3.49391 5.42912 0 0
244 1 Ni 58.71 -0.00957954 5.30401 5.25889 0 0
245 1 Ni 58.71 3.49124 3.55211 3.56712 0 0
246 1 Ni 58.71 5.23116 5.17491 3.73162 0 0
247 1 Ni 58.71 5.24961 3.43893 5.36924 0 0
248 1 Ni 58.71 3.56428 5.25625 5.3974 0 0
249 1 Ni 58.71 7.12639 3.62802 3.55597 0 0
252 1 Ni 58.71 6.98187 5.31598 5.2746 0 0
250 1 Ni 58.71 8.75975 5.26384 3.62444 0 0
251 1 Ni 58.71 8.79284 3.52727 5.31862 0 0
253 1 Ni 58.71 10.597 3.60668 3.47277 0 0
256 1 Ni 58.71 10.5974 5.14751 5.30307 0 0
254 1 Ni 58.71 12.3114 5.3324 3.48598 0 0
255 1 Ni 58.71 12.369 3.35792 5.19445 0 0
257 1 Ni 58.71 14.0879 3.603 3.49434 0 0
258 1 Ni 58.71 15.7884 5.30993 3.54373 0 0
259 1 Ni 58.71 15.7273 3.52173 5.18906 0 0
260 1 Ni 58.71 14.0064 5.29968 5.27524 0 0
261 1 Ni 58.71 17.5982 3.56394 3.53921 261 0.256794
264 1 Ni 58.71 17.5191 5.31988 5.20473 264 0.546491
262 1 Ni 58.71 19.3684 5.35684 3.50735 262 -0.323822
263 1 Ni 58.71 19.3332 3.57443 5.32619 263 0.258905
265 1 Ni 58.71 21.1341 3.53456 3.5887 265 -0.351672
268 1 Ni 58.71 21.0351 5.31083 5.21568 268 0.82565
266 1 Ni 58.71 22.8184 5.26623 3.50229 266 0.344898
267 1 Ni 58.71 22.819 3.62555 5.26111 267 -0.0739171
269 1 Ni 58.71 24.6003 3.60465 3.41438 269 0.0735421
270 1 Ni 58.71 26.261 5.29857 3.54481 270 0.993806
271 1 Ni 58.71 26.4911 3.41514 5.27754 271 -0.73882
272 1 Ni 58.71 24.6087 5.25092 5.32587 272 -0.0772566
273 1 Ni 58.71 28.1713 3.66813 3.41544 273 0.157501
276 1 Ni 58.71 28.1515 5.42018 5.30478 276 -0.20166
274 1 Ni 58.71 29.92 5.29654 3.54312 274 -0.0921409
275 1 Ni 58.71 29.9418 3.49186 5.3044 275 -0.500043
277 1 Ni 58.71 31.6856 3.64428 3.60673 277 -0.519666
280 1 Ni 58.71 31.5464 5.35906 5.36777 280 0.799595
278 1 Ni 58.71 33.4606 5.2847 3.4916 278 -0.520325
279 1 Ni 58.71 33.4051 3.59846 5.34223 279 -0.0715461
281 1 Ni 58.71 0.0152609 7.04859 3.61366 0 0
283 1 Ni 58.71 1.84906 6.97009 5.42878 0 0
285 1 Ni 58.71 3.55337 7.13859 3.58104 0 0
287 1 Ni 58.71 5.25092 7.17549 5.33175 0 0
289 1 Ni 58.71 7.11439 7.112 3.48672 0 0
291 1 Ni 58.71 8.78183 7.04157 5.29577 0 0
293 1 Ni 58.71 10.5334 7.06892 3.59559 0 0
295 1 Ni 58.71 12.3441 7.07136 5.25116 0 0
297 1 Ni 58.71 14.078 7.11014 3.56589 0 0
299 1 Ni 58.71 15.8276 7.04384 5.27839 0 0
301 1 Ni 58.71 17.5399 7.06942 3.51514 301 0.670675
303 1 Ni 58.71 19.3736 6.96255 5.31612 303 -0.598678
305 1 Ni 58.71 21.1411 7.0767 3.5592 305 -0.269592
307 1 Ni 58.71 22.836 7.00708 5.30869 307 0.310967
309 1 Ni 58.71 24.6192 7.0464 3.57714 309 -0.428747
311 1 Ni 58.71 26.2667 7.01879 5.33371 311 1.02162
313 1 Ni 58.71 28.1174 7.01172 3.55816 313 -0.635849
315 1 Ni 58.71 29.7961 7.0896 5.26686 315 0.262691
317 1 Ni 58.71 31.6667 7.0149 3.60931 317 0.0306565
319 1 Ni 58.71 33.4427 6.99949 5.4781 319 -0.922813
282 1 Ni 58.71 1.77803 8.76309 3.6739 0 0
284 1 Ni 58.71 35.1072 8.67948 5.43358 0 0
321 1 Ni 58.71 35.0473 10.5358 3.66914 0 0
323 1 Ni 58.71 1.65108 10.5741 5.26443 0 0
286 1 Ni 58.71 5.33856 8.89458 3.48563 0 0
288 1 Ni 58.71 3.47919 8.84915 5.33115 0 0
325 1 Ni 58.71 3.543 10.6678 3.55786 0 0
327 1 Ni 58.71 5.22272 10.5837 5.32088 0 0
292 1 Ni 58.71 7.03165 8.76958 5.26759 0 0
329 1 Ni 58.71 7.1036 10.5495 3.65199 0 0
290 1 Ni 58.71 8.82806 8.83073 3.60732 0 0
296 1 Ni 58.71 10.6107 8.78771 5.35151 0 0
331 1 Ni 58.71 8.82826 10.5952 5.40207 0 0
333 1 Ni 58.71 10.4541 10.5962 3.56887 0 0
294 1 Ni 58.71 12.3498 8.80003 3.58361 0 0
335 1 Ni 58.71 12.173 10.7103 5.22855 0 0
298 1 Ni 58.71 15.9087 8.87239 3.53532 0 0
300 1 Ni 58.71 13.9676 8.94357 5.2978 0 0
337 1 Ni 58.71 14.015 10.4688 3.56667 0 0
339 1 Ni 58.71 15.7696 10.5534 5.28765 0 0
304 1 Ni 58.71 17.6259 8.78764 5.30065 304 0.109935
341 1 Ni 58.71 17.6511 10.5838 3.60704 341 -0.30304
302 1 Ni 58.71 19.3903 8.83786 3.5304 302 -0.0942921
308 1 Ni 58.71 21.1194 8.84002 5.28549 308 0.220796
343 1 Ni 58.71 19.3721 10.6082 5.29032 343 0.156596
345 1 Ni 58.71 21.1589 10.7511 3.5484 345 0.0456918
306 1 Ni 58.71 22.8255 8.7697 3.58845 306 0.21093
347 1 Ni 58.71 22.9739 10.645 5.22339 347 -1.21443
310 1 Ni 58.71 26.4574 8.8276 3.51191 310 -0.736595
312 1 Ni 58.71 24.5334 8.83236 5.26332 312 0.849496
349 1 Ni 58.71 24.65 10.5871 3.54081 349 0.811877
351 1 Ni 58.71 26.3871 10.6497 5.24446 351 -0.315699
316 1 Ni 58.71 28.0349 8.84562 5.29362 316 0.383135
353 1 Ni 58.71 28.127 10.681 3.55032 353 0.095322
314 1 Ni 58.71 29.8568 8.78727 3.70772 314 -0.214538
320 1 Ni 58.71 31.5326 8.69897 5.35763 320 1.44711
355 1 Ni 58.71 29.9277 10.6263 5.28716 355 -0.713761
357 1 Ni 58.71 31.7433 10.4182 3.71469 357 -0.220923
318 1 Ni 58.71 33.4692 8.62572 3.43401 318 -0.748762
359 1 Ni 58.71 33.3523 10.5184 5.44588 359 0.825102
322 1 Ni 58.71 1.70764 12.3546 3.60423 0 0
324 1 Ni 58.71 0.0554238 12.3679 5.27976 0 0
361 1 Ni 58.71 35.1281 14.0699 3.65177 0 0
363 1 Ni 58.71 1.77812 14.0974 5.39259 0 0
326 1 Ni 58.71 5.29651 12.2046 3.52111 0 0
328 1 Ni 58.71 3.41864 12.3836 5.34395 0 0
365 1 Ni 58.71 3.48216 14.1066 3.52896 0 0
367 1 Ni 58.71 5.21634 13.9664 5.34029 0 0
332 1 Ni 58.71 6.95837 12.3175 5.22646 0 0
369 1 Ni 58.71 6.91432 14.1522 3.60552 0 0
330 1 Ni 58.71 8.65361 12.4693 3.51727 0 0
336 1 Ni 58.71 10.588 12.4781 5.35608 0 0
371 1 Ni 58.71 8.84423 14.1007 5.22229 0 0
373 1 Ni 58.71 10.4822 14.198 3.5101 0 0
334 1 Ni 58.71 12.2916 12.4614 3.5419 0 0
375 1 Ni 58.71 12.3953 14.0766 5.29515 0 0
338 1 Ni 58.71 15.7765 12.2297 3.41694 0 0
340 1 Ni 58.71 13.9869 12.3132 5.20807 0 0
377 1 Ni 58.71 14.0022 14.1115 3.46512 0 0
379 1 Ni 58.71 15.73 14.1798 5.18356 0 0
344 1 Ni 58.71 17.4531 12.3211 5.26004 344 0.743793
381 1 Ni 58.71 17.5191 14.1063 3.58739 381 0.221742
342 1 Ni 58.71 19.3432 12.3696 3.47897 342 -0.513578
348 1 Ni 58.71 21.1465 12.3836 5.25252 348 0.0899014
383 1 Ni 58.71 19.317 14.1183 5.27195 383 -0.00472905
385 1 Ni 58.71 21.1092 14.0241 3.48355 385 0.269096
346 1 Ni 58.71 23.0413 12.475 3.60507 346 -0.801412
387 1 Ni 58.71 22.9229 14.0965 5.37292 387 -0.279087
350 1 Ni 58.71 26.4327 12.4327 3.49993 350 -0.553573
352 1 Ni 58.71 24.694 12.3553 5.27219 352 0.179839
389 1 Ni 58.71 24.6627 14.2348 3.50893 389 -0.0858901
391 1 Ni 58.71 26.4117 14.188 5.30441 391 0.22652
356 1 Ni 58.71 28.1618 12.3753 5.20618 356 -0.0513201
393 1 Ni 58.71 28.1503 14.1357 3.43209 393 0.104373
354 1 Ni 58.71 29.8099 12.3537 3.43488 354 1.08558
360 1 Ni 58.71 31.6122 12.2832 5.32836 360 0.343042
395 1 Ni 58.71 29.8719 14.0727 5.32082 395 0.0573328
397 1 Ni 58.71 31.7215 14.0256 3.68087 397 -0.673596
358 1 Ni 58.71 33.4087 12.2878 3.63663 358 -0.0736892
399 1 Ni 58.71 33.4195 14.0338 5.46852 399 0.0522974
362 1 Ni 58.71 1.73632 15.9208 3.53468 0 0
364 1 Ni 58.71 0.0516408 15.8136 5.40314 0 0
366 1 Ni 58.71 5.14252 15.9006 3.51623 0 0
368 1 Ni 58.71 3.45735 15.8424 5.21931 0 0
372 1 Ni 58.71 6.94415 15.8598 5.24231 0 0
370 1 Ni 58.71 8.757 15.8265 3.56033 0 0
376 1 Ni 58.71 10.4969 15.8056 5.30001 0 0
374 1 Ni 58.71 12.286 15.9438 3.51592 0 0
378 1 Ni 58.71 15.8477 15.9194 3.5386 0 0
380 1 Ni 58.71 13.975 15.8982 5.18544 0 0
384 1 Ni 58.71 17.5845 15.9447 5.30642 384 0.0749786
382 1 Ni 58.71 19.2639 15.7861 3.5689 382 0.635347
388 1 Ni 58.71 21.0613 15.8032 5.25608 388 0.277044
386 1 Ni 58.71 22.835 15.9217 3.62564 386 0.0357166
390 1 Ni 58.71 26.4218 15.8823 3.59724 390 1.06281
392 1 Ni 58.71 24.7284 15.9534 5.22428 392 -0.834981
396 1 Ni 58.71 28.2176 15.898 5.45187 396 -0.612965
394 1 Ni 58.71 29.9042 15.7876 3.50972 394 -0.00909584
400 1 Ni 58.71 31.6183 15.8803 5.45238 400 -0.303262
398 1 Ni 58.71 33.4406 15.6858 3.71064 398 -0.630168
932 1 Ni 58.71 7.04676 12.2915 15.8519 0 0
402 1 Ni 58.71 1.749 1.66184 7.14355 0 0
58 1 Ni 58.71 15.9825 5.22201 0.000847448 0 0
406 1 Ni 58.71 5.31742 1.75114 7.04631 0 0
233 1 Ni 58.71 28.125 0.0163038 3.43415 233 0.182616
410 1 Ni 58.71 8.80654 1.72515 7.05385 0 0
967 1 Ni 58.71 5.2466 14.0717 15.892 0 0
414 1 Ni 58.71 12.2517 1.70048 7.09129 0 0
928 1 Ni 58.71 3.54739 12.2892 15.8413 0 0
418 1 Ni 58.71 15.8501 1.64351 7.03764 0 0
963 1 Ni 58.71 1.7742 14.0043 15.8157 0 0
422 1 Ni 58.71 19.3695 1.7026 7.114 422 -0.514616
924 1 Ni 58.71 35.0809 12.2932 15.859 0 0
426 1 Ni 58.71 22.7696 1.84013 7.01785 426 0.321535
2229 1 Ni 58.71 24.6216 17.5785 3.56647 2229 0.386423
430 1 Ni 58.71 26.3782 1.84073 7.0442 430 0.203496
959 1 Ni 58.71 33.328 10.4757 15.78 959 0.363438
434 1 Ni 58.71 29.9356 1.91008 7.10794 434 -0.581622
121 1 Ni 58.71 35.1359 10.5233 0.00377895 0 0
438 1 Ni 58.71 33.3686 1.81784 7.08039 438 0.587017
441 1 Ni 58.71 35.1613 3.49278 7.09984 0 0
442 1 Ni 58.71 1.68952 5.23431 7.06558 0 0
445 1 Ni 58.71 3.43274 3.5141 7.04997 0 0
446 1 Ni 58.71 5.29038 5.30164 7.02462 0 0
449 1 Ni 58.71 7.12968 3.51053 7.00711 0 0
450 1 Ni 58.71 8.85094 5.34329 7.09761 0 0
453 1 Ni 58.71 10.5693 3.38901 6.9879 0 0
454 1 Ni 58.71 12.3289 5.14654 6.96658 0 0
457 1 Ni 58.71 14.042 3.43578 7.0501 0 0
458 1 Ni 58.71 15.8428 5.26458 7.01641 0 0
461 1 Ni 58.71 17.6714 3.38119 6.96328 461 -1.26674
462 1 Ni 58.71 19.3256 5.28865 7.00139 462 0.0205791
465 1 Ni 58.71 20.9837 3.51541 7.0932 465 0.823178
466 1 Ni 58.71 22.8308 5.22905 7.03486 466 -0.325712
469 1 Ni 58.71 24.5985 3.55286 7.04754 469 0.0769482
470 1 Ni 58.71 26.4385 5.24618 6.95413 470 -0.644793
473 1 Ni 58.71 28.1239 3.60516 7.02407 473 0.670541
474 1 Ni 58.71 29.8828 5.28857 7.05971 474 -0.328076
477 1 Ni 58.71 31.6552 3.53036 7.11684 477 -0.641435
478 1 Ni 58.71 33.2811 5.23007 7.117 478 0.988415
481 1 Ni 58.71 35.1725 6.97384 7.1804 0 0
485 1 Ni 58.71 3.59223 7.11439 7.1343 0 0
489 1 Ni 58.71 7.13783 7.01582 7.04256 0 0
493 1 Ni 58.71 10.4827 6.89688 6.95827 0 0
497 1 Ni 58.71 14.0618 7.04512 6.94027 0 0
501 1 Ni 58.71 17.6462 7.00377 7.06852 501 -0.538443
505 1 Ni 58.71 21.0845 7.07699 7.02395 505 0.552492
509 1 Ni 58.71 24.6722 7.04136 7.04744 509 -1.01015
513 1 Ni 58.71 28.1099 7.10363 7.09904 513 -0.531452
517 1 Ni 58.71 31.4676 7.13309 7.13078 517 0.973029
482 1 Ni 58.71 1.7513 8.8499 7.11055 0 0
521 1 Ni 58.71 0.0177251 10.4837 7.09357 0 0
486 1 Ni 58.71 5.33172 8.85858 7.09247 0 0
525 1 Ni 58.71 3.50307 10.5815 7.0701 0 0
529 1 Ni 58.71 7.04674 10.6293 7.03152 0 0
490 1 Ni 58.71 8.72555 8.84684 7.08556 0 0
533 1 Ni 58.71 10.5249 10.5082 7.09913 0 0
494 1 Ni 58.71 12.2146 8.79286 7.047 0 0
498 1 Ni 58.71 15.8457 8.7991 7.01568 0 0
537 1 Ni 58.71 14.12 10.5246 7.03645 0 0
541 1 Ni 58.71 17.585 10.6232 7.00699 541 0.121393
502 1 Ni 58.71 19.405 8.76966 7.02898 502 -0.622777
545 1 Ni 58.71 21.1867 10.5503 7.04379 545 -0.619265
506 1 Ni 58.71 22.9522 8.84407 7.14867 506 -1.06588
510 1 Ni 58.71 26.2808 8.84987 7.01011 510 0.440861
549 1 Ni 58.71 24.5725 10.5876 7.01599 549 0.589087
553 1 Ni 58.71 28.1546 10.6641 6.94419 553 -0.631434
514 1 Ni 58.71 29.7912 8.85597 7.10999 514 -0.333999
557 1 Ni 58.71 31.6012 10.5041 7.03501 557 0.197245
518 1 Ni 58.71 33.4216 8.81721 7.17068 518 -0.233611
522 1 Ni 58.71 1.80432 12.4343 7.10817 0 0
561 1 Ni 58.71 35.1834 14.0676 7.12093 0 0
526 1 Ni 58.71 5.26173 12.4444 7.0937 0 0
565 1 Ni 58.71 3.59315 14.2198 7.06058 0 0
569 1 Ni 58.71 6.96923 14.1536 6.97965 0 0
530 1 Ni 58.71 8.78437 12.3439 7.01624 0 0
573 1 Ni 58.71 10.5583 14.0818 7.04646 0 0
534 1 Ni 58.71 12.4047 12.3708 7.15205 0 0
538 1 Ni 58.71 15.8469 12.3062 7.02468 0 0
577 1 Ni 58.71 14.1027 14.0928 7.06916 0 0
581 1 Ni 58.71 17.6426 14.1291 7.02001 581 -0.593325
542 1 Ni 58.71 19.3747 12.2966 6.93042 542 0.0184651
585 1 Ni 58.71 21.0578 14.1392 7.04888 585 0.264921
546 1 Ni 58.71 22.8478 12.3063 7.1031 546 -0.0188026
550 1 Ni 58.71 26.4594 12.3662 6.97167 550 -0.880902
589 1 Ni 58.71 24.6123 14.1552 7.04762 589 0.954073
593 1 Ni 58.71 28.1235 14.0399 7.13672 593 0.384097
554 1 Ni 58.71 29.9041 12.1946 7.05672 554 -0.299942
597 1 Ni 58.71 31.6428 14.0128 7.06505 597 -0.404593
558 1 Ni 58.71 33.4483 12.2415 7.0944 558 0.126437
562 1 Ni 58.71 1.77331 15.8318 7.12345 0 0
566 1 Ni 58.71 5.25766 15.8931 6.95274 0 0
570 1 Ni 58.71 8.81443 15.8599 6.99845 0 0
574 1 Ni 58.71 12.3265 15.8798 7.11467 0 0
578 1 Ni 58.71 15.8853 15.8333 7.07705 0 0
582 1 Ni 58.71 19.3085 15.8834 6.98963 582 0.123868
586 1 Ni 58.71 22.8191 15.8747 7.05581 586 0.263363
590 1 Ni 58.71 26.4278 15.9904 7.12596 590 -0.00508543
594 1 Ni 58.71 29.7843 15.9177 7.1669 594 0.58415
598 1 Ni 58.71 33.4662 15.9472 7.11312 598 -0.30378
955 1 Ni 58.71 29.8724 10.7139 15.7797 955 1.04476
404 1 Ni 58.71 35.0973 1.77706 8.80573 0 0
920 1 Ni 58.71 31.5733 8.80636 15.7509 920 0.167569
602 1 Ni 58.71 1.64443 1.73851 10.545 0 0
839 1 Ni 58.71 33.3229 -0.00864884 15.7927 839 0.604903
408 1 Ni 58.71 3.55725 1.85743 8.80454 0 0
916 1 Ni 58.71 28.1197 8.8138 15.8513 916 0.330882
606 1 Ni 58.71 5.31959 1.77402 10.638 0 0
412 1 Ni 58.71 7.09922 1.68687 8.79561 0 0
951 1 Ni 58.71 26.4673 10.6347 15.8347 951 -0.448501
1005 1 Ni 58.71 3.54606 0.0416455 17.5997 0 0
416 1 Ni 58.71 10.4933 1.67712 8.77448 0 0
610 1 Ni 58.71 8.79833 1.69111 10.5251 0 0
165 1 Ni 58.71 3.36139 14.0862 0.0403894 0 0
912 1 Ni 58.71 24.6874 8.85497 15.883 912 -0.872855
614 1 Ni 58.71 12.4173 1.68197 10.4951 0 0
1158 1 Ni 58.71 33.369 12.2671 17.5607 1158 0.832277
420 1 Ni 58.71 14.1279 1.77065 8.72311 0 0
947 1 Ni 58.71 22.8548 10.5569 15.8349 947 -0.193211
618 1 Ni 58.71 15.8702 1.71751 10.5037 0 0
424 1 Ni 58.71 17.6532 1.64909 8.88722 424 -0.67172
61 1 Ni 58.71 17.6959 3.45704 0.0420125 61 -0.663056
943 1 Ni 58.71 19.3818 10.6206 15.8033 943 -0.375707
428 1 Ni 58.71 20.9522 1.75178 8.80144 428 1.51477
622 1 Ni 58.71 19.3137 1.82222 10.5612 622 0.465745
41 1 Ni 58.71 35.1785 3.51079 -0.00363751 0 0
1022 1 Ni 58.71 19.3863 1.86648 17.6006 1022 0.165772
626 1 Ni 58.71 22.7307 1.6763 10.5824 626 0.992443
1006 1 Ni 58.71 5.30929 1.69608 17.6042 0 0
432 1 Ni 58.71 24.5829 1.83991 8.721 432 -0.274308
97 1 Ni 58.71 13.9723 7.16546 0.0896645 0 0
630 1 Ni 58.71 26.2486 1.76 10.5647 630 0.584409
436 1 Ni 58.71 28.1735 1.74429 8.78666 436 -0.699887
908 1 Ni 58.71 21.0529 8.76498 15.888 908 0.193541
904 1 Ni 58.71 17.6391 8.84994 15.8611 904 -0.346588
440 1 Ni 58.71 31.7322 1.82875 8.82147 440 -0.729275
634 1 Ni 58.71 29.8573 1.7331 10.5627 634 0.739648
1198 1 Ni 58.71 33.4722 16.028 17.5074 1198 -0.15075
939 1 Ni 58.71 15.7346 10.5541 15.7978 0 0
638 1 Ni 58.71 33.4139 1.71846 10.6581 638 -0.034844
443 1 Ni 58.71 1.68815 3.53422 8.9346 0 0
444 1 Ni 58.71 35.0697 5.16771 8.86712 0 0
641 1 Ni 58.71 35.1183 3.57182 10.5854 0 0
642 1 Ni 58.71 1.72348 5.33487 10.477 0 0
447 1 Ni 58.71 5.34227 3.44257 8.77661 0 0
448 1 Ni 58.71 3.58202 5.35618 8.85763 0 0
645 1 Ni 58.71 3.57769 3.47813 10.6303 0 0
646 1 Ni 58.71 5.34456 5.18899 10.5228 0 0
452 1 Ni 58.71 7.12358 5.30999 8.76245 0 0
649 1 Ni 58.71 7.13391 3.47199 10.6041 0 0
451 1 Ni 58.71 8.84216 3.47957 8.8168 0 0
456 1 Ni 58.71 10.5874 5.26382 8.81935 0 0
650 1 Ni 58.71 8.77204 5.25937 10.5923 0 0
653 1 Ni 58.71 10.6621 3.63341 10.53 0 0
455 1 Ni 58.71 12.2818 3.48108 8.81104 0 0
654 1 Ni 58.71 12.4116 5.24282 10.5691 0 0
459 1 Ni 58.71 15.7896 3.47969 8.7755 0 0
460 1 Ni 58.71 14.0192 5.23133 8.71162 0 0
657 1 Ni 58.71 14.157 3.37493 10.5356 0 0
658 1 Ni 58.71 15.78 5.24101 10.5176 0 0
464 1 Ni 58.71 17.5877 5.27909 8.77236 464 -0.100648
661 1 Ni 58.71 17.5133 3.44819 10.4631 661 0.270779
463 1 Ni 58.71 19.3142 3.49943 8.82464 463 -0.12687
468 1 Ni 58.71 21.1062 5.28571 8.81759 468 -0.193572
662 1 Ni 58.71 19.3541 5.28808 10.5819 662 0.115893
665 1 Ni 58.71 21.0952 3.5341 10.6314 665 -0.400037
467 1 Ni 58.71 22.7266 3.51088 8.92807 467 0.953984
666 1 Ni 58.71 22.8574 5.25402 10.6366 666 0.29081
471 1 Ni 58.71 26.4217 3.55896 8.80772 471 -0.26737
472 1 Ni 58.71 24.6116 5.29258 8.77263 472 -0.355713
669 1 Ni 58.71 24.5582 3.55322 10.7026 669 0.543575
670 1 Ni 58.71 26.3594 5.29019 10.5872 670 -0.0367157
476 1 Ni 58.71 28.1862 5.32872 8.82259 476 -0.738009
673 1 Ni 58.71 28.0845 3.48297 10.6657 673 0.0630382
475 1 Ni 58.71 29.8203 3.51577 8.89509 475 0.524668
480 1 Ni 58.71 31.6079 5.33771 8.79591 480 -0.596768
674 1 Ni 58.71 29.8379 5.40309 10.6446 674 0.126658
677 1 Ni 58.71 31.6355 3.60204 10.6181 677 0.042442
479 1 Ni 58.71 33.3853 3.52556 8.7592 479 -0.123474
678 1 Ni 58.71 33.3141 5.39265 10.5746 678 0.416845
483 1 Ni 58.71 1.70963 7.05758 8.77547 0 0
681 1 Ni 58.71 35.1502 7.10732 10.5903 0 0
487 1 Ni 58.71 5.35627 7.05489 8.85757 0 0
685 1 Ni 58.71 3.50882 7.02461 10.4553 0 0
689 1 Ni 58.71 7.05652 6.99596 10.6053 0 0
491 1 Ni 58.71 8.78741 6.9884 8.86226 0 0
693 1 Ni 58.71 10.5608 6.83225 10.5678 0 0
495 1 Ni 58.71 12.2964 7.01444 8.74913 0 0
499 1 Ni 58.71 15.8007 7.06714 8.73575 0 0
697 1 Ni 58.71 14.0325 7.02717 10.5409 0 0
701 1 Ni 58.71 17.5166 6.91493 10.608 701 0.54191
503 1 Ni 58.71 19.3641 7.04123 8.83313 503 -0.299811
705 1 Ni 58.71 21.165 7.05143 10.5496 705 -0.195075
507 1 Ni 58.71 22.8806 7.10199 8.75103 507 -0.268493
511 1 Ni 58.71 26.3091 6.98614 8.7778 511 0.458863
709 1 Ni 58.71 24.5658 7.09897 10.5577 709 -0.158884
713 1 Ni 58.71 28.0773 7.04971 10.5629 713 -0.0385593
515 1 Ni 58.71 29.7337 7.13841 8.82191 515 0.824333
717 1 Ni 58.71 31.5371 7.11612 10.4277 717 0.408999
519 1 Ni 58.71 33.4428 7.02946 8.75878 519 -0.677378
484 1 Ni 58.71 0.0435016 8.84702 8.82202 0 0
523 1 Ni 58.71 1.7736 10.6415 8.75942 0 0
682 1 Ni 58.71 1.69874 8.85539 10.4845 0 0
721 1 Ni 58.71 35.11 10.4524 10.6506 0 0
488 1 Ni 58.71 3.53224 8.77574 8.82044 0 0
527 1 Ni 58.71 5.2966 10.6428 8.82009 0 0
686 1 Ni 58.71 5.30841 8.84864 10.5269 0 0
725 1 Ni 58.71 3.49143 10.4889 10.5233 0 0
492 1 Ni 58.71 7.05458 8.78789 8.85638 0 0
729 1 Ni 58.71 7.0937 10.6834 10.5415 0 0
496 1 Ni 58.71 10.5108 8.80756 8.82521 0 0
531 1 Ni 58.71 8.71017 10.6035 8.79184 0 0
690 1 Ni 58.71 8.84213 8.72535 10.588 0 0
733 1 Ni 58.71 10.4288 10.5591 10.4986 0 0
535 1 Ni 58.71 12.3215 10.503 8.86624 0 0
694 1 Ni 58.71 12.1627 8.70672 10.5704 0 0
500 1 Ni 58.71 14.0993 8.69864 8.75382 0 0
539 1 Ni 58.71 15.8552 10.5201 8.81383 0 0
698 1 Ni 58.71 15.851 8.69967 10.5773 0 0
737 1 Ni 58.71 14.0043 10.5203 10.5869 0 0
504 1 Ni 58.71 17.6428 8.78776 8.73567 504 -0.553135
741 1 Ni 58.71 17.5936 10.509 10.6452 741 -0.657391
508 1 Ni 58.71 20.9779 8.80502 8.84274 508 1.09932
543 1 Ni 58.71 19.2165 10.5488 8.90339 543 1.61291