ITEM: TIMESTEP
100
ITEM: NUMBER OF ATOMS
4000
ITEM: BOX BOUNDS pp pp pp
0.0000000000000000e+00 3.5200000000000003e+01
0.0000000000000000e+00 3.5200000000000003e+01
0.0000000000000000e+00 3.5200000000000003e+01
ITEM: ATOMS id type element mass x y z c_1[1] c_1[2]
1000 1 Ni 58.71 31.6902 15.8127 15.7327 1000 0.389494
2 1 Ni 58.71 1.75453 1.80033 0.014442 0 0
996 1 Ni 58.71 28.159 15.8522 15.7625 996 -0.288772
4 1 Ni 58.71 0.0246731 1.72883 1.76625 0 0
992 1 Ni 58.71 24.691 15.8012 15.7797 992 -0.451423
6 1 Ni 58.71 5.30493 1.77687 -0.0120507 0 0
988 1 Ni 58.71 21.1711 15.8085 15.8458 988 -0.145089
8 1 Ni 58.71 3.45525 1.74215 1.80154 0 0
984 1 Ni 58.71 17.5968 15.8044 15.8496 984 -0.177661
12 1 Ni 58.71 6.99457 1.7598 1.80866 0 0
10 1 Ni 58.71 8.78438 1.65848 0.0680168 0 0
980 1 Ni 58.71 14.0972 15.8424 15.8332 0 0
976 1 Ni 58.71 10.6191 15.8613 15.8156 0 0
16 1 Ni 58.71 10.4865 1.72225 1.7767 0 0
14 1 Ni 58.71 12.2426 1.73644 0.0162016 0 0
972 1 Ni 58.71 7.08155 15.8087 15.7448 0 0
65 1 Ni 58.71 21.2017 3.53115 0.0368605 65 -0.751868
18 1 Ni 58.71 15.8578 1.75906 0.0820377 0 0
968 1 Ni 58.71 3.54782 15.7415 15.8865 0 0
20 1 Ni 58.71 14.0442 1.77275 1.76975 0 0
964 1 Ni 58.71 0.0500592 15.8107 15.9211 0 0
24 1 Ni 58.71 17.6643 1.78 1.76191 24 -0.516362
2831 1 Ni 58.71 26.3725 17.6126 15.7696 2831 0.212242
999 1 Ni 58.71 33.5 14.0926 15.9084 999 -0.126726
995 1 Ni 58.71 29.9334 14.1005 15.6907 995 0.0474398
28 1 Ni 58.71 21.163 1.67116 1.75187 28 -0.155067
1194 1 Ni 58.71 29.9723 15.8114 17.5244 1194 -0.220097
27 1 Ni 58.71 22.9643 -0.0167396 1.71402 27 -0.5063
1186 1 Ni 58.71 22.9282 15.7704 17.5902 1186 0.10128
1182 1 Ni 58.71 19.3753 15.8228 17.5822 1182 -0.00256442
960 1 Ni 58.71 31.7045 12.3092 15.7849 960 -0.0132164
32 1 Ni 58.71 24.7491 1.7595 1.75895 32 -0.47864
956 1 Ni 58.71 28.1424 12.4262 15.746 956 0.141411
36 1 Ni 58.71 28.1323 1.75905 1.79909 36 0.0970532
205 1 Ni 58.71 3.46824 0.00860363 3.5944 0 0
35 1 Ni 58.71 29.8786 -0.016127 1.79133 35 0.0861092
1174 1 Ni 58.71 12.3255 15.812 17.6355 0 0
40 1 Ni 58.71 31.7261 1.69334 1.80691 40 -0.408225
3009 1 Ni 58.71 7.11686 17.6081 17.5227 0 0
22 1 Ni 58.71 19.3514 1.72089 0.0788409 22 0.288136
19 1 Ni 58.71 15.8163 0.0679278 1.77667 0 0
15 1 Ni 58.71 12.3007 0.0189863 1.78742 0 0
43 1 Ni 58.71 1.69921 3.61676 1.74709 0 0
44 1 Ni 58.71 -0.00365446 5.32548 1.777 0 0
2639 1 Ni 58.71 33.4691 17.4977 12.3512 2639 0.384689
207 1 Ni 58.71 5.23733 0.0928221 5.25384 0 0
47 1 Ni 58.71 5.32223 3.52827 1.73452 0 0
48 1 Ni 58.71 3.49996 5.24337 1.74765 0 0
2829 1 Ni 58.71 24.5978 17.5829 14.0781 2829 0.286305
52 1 Ni 58.71 7.08596 5.24356 1.75321 0 0
1170 1 Ni 58.71 8.84937 15.8382 17.5318 0 0
51 1 Ni 58.71 8.83699 3.48422 1.78649 0 0
53 1 Ni 58.71 10.5766 3.47325 0.0330445 0 0
56 1 Ni 58.71 10.4952 5.31915 1.75168 0 0
54 1 Ni 58.71 12.2566 5.27584 0.00946282 0 0
55 1 Ni 58.71 12.2463 3.5158 1.77994 0 0
3 1 Ni 58.71 1.74 0.00502368 1.77176 0 0
2839 1 Ni 58.71 33.5067 17.5433 15.8028 2839 -0.4305
59 1 Ni 58.71 15.8314 3.52163 1.78888 0 0
60 1 Ni 58.71 14.0442 5.26012 1.79655 0 0
61 1 Ni 58.71 17.5829 3.55021 0.0401178 61 0.0823295
64 1 Ni 58.71 17.5878 5.30826 1.77092 64 -0.189121
2835 1 Ni 58.71 29.9107 17.5218 15.8062 2835 0.142967
63 1 Ni 58.71 19.4163 3.55565 1.72651 63 -0.173794
129 1 Ni 58.71 6.99901 10.6246 0.0572366 0 0
68 1 Ni 58.71 21.2177 5.28232 1.77487 68 -1.01778
2611 1 Ni 58.71 8.80087 17.6011 12.2829 0 0
67 1 Ni 58.71 22.9028 3.45752 1.67712 67 0.393773
1197 1 Ni 58.71 31.7321 14.151 17.5969 1197 -0.339393
2805 1 Ni 58.71 3.50127 17.569 14.1702 0 0
71 1 Ni 58.71 26.4033 3.5293 1.69111 71 0.00938544
72 1 Ni 58.71 24.6702 5.24334 1.7123 72 -0.249799
2627 1 Ni 58.71 22.8424 17.5649 12.4067 2627 -0.0140557
76 1 Ni 58.71 28.1428 5.24025 1.80119 76 0.511719
74 1 Ni 58.71 29.9214 5.21894 0.020663 74 -0.396989
75 1 Ni 58.71 29.941 3.48017 1.77857 75 -0.2769
77 1 Ni 58.71 31.6478 3.48533 0.032452 77 0.153144
80 1 Ni 58.71 31.642 5.31531 1.78707 80 0.844127
78 1 Ni 58.71 33.4651 5.3014 0.0484245 78 -0.115468
79 1 Ni 58.71 33.4355 3.57488 1.74524 79 0.0534055
81 1 Ni 58.71 0.0527787 7.03603 -0.0407076 0 0
83 1 Ni 58.71 1.70199 7.12494 1.8259 0 0
98 1 Ni 58.71 15.8107 8.78591 0.0194602 0 0
87 1 Ni 58.71 5.31033 6.99745 1.77207 0 0
2607 1 Ni 58.71 5.26911 17.5702 12.3834 0 0
91 1 Ni 58.71 8.81745 7.01157 1.77975 0 0
2801 1 Ni 58.71 0.103952 17.5216 14.1548 0 0
95 1 Ni 58.71 12.3229 7.04894 1.71344 0 0
97 1 Ni 58.71 14.0546 7.05483 -0.00303876 0 0
99 1 Ni 58.71 15.8358 7.10776 1.79935 0 0
2803 1 Ni 58.71 1.76762 17.4734 15.9471 0 0
103 1 Ni 58.71 19.3531 7.03234 1.8172 103 -0.499043
105 1 Ni 58.71 20.9877 7.03645 -0.0456923 105 0.822704
107 1 Ni 58.71 22.8509 7.0269 1.81911 107 0.739459
2637 1 Ni 58.71 31.7314 17.5759 10.58 2637 -0.29889
111 1 Ni 58.71 26.4781 7.00294 1.77401 111 -0.908255
113 1 Ni 58.71 28.1442 6.94907 0.067033 113 0.434398
115 1 Ni 58.71 30.0008 7.04432 1.71664 115 -0.930066
2825 1 Ni 58.71 21.1809 17.5933 14.1242 2825 -0.333405
119 1 Ni 58.71 33.4918 7.09381 1.73158 119 -0.357567
2619 1 Ni 58.71 15.8344 17.4812 12.3222 0 0
84 1 Ni 58.71 0.00488624 8.83008 1.76824 0 0
1154 1 Ni 58.71 29.9326 12.4833 17.4996 1154 0.356506
123 1 Ni 58.71 1.78831 10.5298 1.78952 0 0
2623 1 Ni 58.71 19.3191 17.5366 12.3468 2623 0.500798
88 1 Ni 58.71 3.5387 8.80099 1.70168 0 0
125 1 Ni 58.71 3.59247 10.5472 0.00314522 0 0
127 1 Ni 58.71 5.2164 10.6209 1.82453 0 0
92 1 Ni 58.71 7.04156 8.74725 1.71128 0 0
2427 1 Ni 58.71 22.8921 17.5097 8.81372 2427 -0.422997
2625 1 Ni 58.71 21.0432 17.5308 10.6086 2625 0.554235
96 1 Ni 58.71 10.4988 8.77506 1.72952 0 0
131 1 Ni 58.71 8.76705 10.5342 1.72809 0 0
2621 1 Ni 58.71 17.5625 17.5734 10.5529 2621 0.18811
2617 1 Ni 58.71 14.1006 17.5641 10.5699 0 0
135 1 Ni 58.71 12.2084 10.5529 1.70698 0 0
1193 1 Ni 58.71 28.2397 14.1084 17.5191 1193 -0.819084
100 1 Ni 58.71 14.0452 8.84157 1.75158 0 0
2435 1 Ni 58.71 29.9315 17.547 8.75713 2435 -0.307787
139 1 Ni 58.71 15.8458 10.5433 1.72618 0 0
104 1 Ni 58.71 17.5317 8.86304 1.7288 104 0.77505
2609 1 Ni 58.71 7.05992 17.5764 10.5523 0 0
102 1 Ni 58.71 19.3042 8.77546 0.0201009 102 -0.0532585
108 1 Ni 58.71 21.0971 8.73025 1.80028 108 -0.286687
143 1 Ni 58.71 19.3505 10.5648 1.80465 143 -0.322944
2601 1 Ni 58.71 0.069303 17.6075 10.5754 0 0
106 1 Ni 58.71 22.8666 8.70576 0.0465296 106 -0.384874
147 1 Ni 58.71 22.7971 10.4924 1.77609 147 0.597093
2429 1 Ni 58.71 24.5724 17.5307 7.02316 2429 0.628216
112 1 Ni 58.71 24.6452 8.7849 1.67639 112 0.142967
2425 1 Ni 58.71 21.0792 17.5073 7.06548 2425 -0.0836129
151 1 Ni 58.71 26.4651 10.537 1.71671 151 -0.805779
116 1 Ni 58.71 28.1704 8.77305 1.73068 116 0.0738144
1 1 Ni 58.71 35.1028 0.0329785 0.0128334 0 0
1189 1 Ni 58.71 24.6918 14.0795 17.5695 1189 -0.040202
120 1 Ni 58.71 31.6891 8.77027 1.75343 120 0.0246983
155 1 Ni 58.71 29.9537 10.5768 1.7562 155 -0.346552
2433 1 Ni 58.71 28.0747 17.5574 7.04902 2433 0.0321949
126 1 Ni 58.71 5.29103 12.3622 0.0702232 0 0
159 1 Ni 58.71 33.4928 10.5449 1.75319 159 -0.659094
2807 1 Ni 58.71 5.24854 17.5177 15.8928 0 0
124 1 Ni 58.71 35.1953 12.2532 1.85078 0 0
2821 1 Ni 58.71 17.5558 17.5584 14.1005 2821 0.25556
163 1 Ni 58.71 1.73165 14.084 1.79363 0 0
1185 1 Ni 58.71 21.1525 14.0339 17.5583 1185 0.102393
128 1 Ni 58.71 3.48389 12.3222 1.76543 0 0
165 1 Ni 58.71 3.49132 14.0719 -0.0146977 0 0
167 1 Ni 58.71 5.22871 14.1061 1.82037 0 0
132 1 Ni 58.71 6.95107 12.3202 1.85651 0 0
169 1 Ni 58.71 7.02999 14.1792 0.0085358 0 0
235 1 Ni 58.71 29.9275 0.0570212 5.30789 235 0.213902
136 1 Ni 58.71 10.4912 12.3563 1.73522 0 0
171 1 Ni 58.71 8.72603 14.1201 1.82173 0 0
2231 1 Ni 58.71 26.3484 17.588 5.22866 2231 0.307487
2423 1 Ni 58.71 19.3535 17.502 8.83408 2423 -0.276274
175 1 Ni 58.71 12.2628 14.1324 1.73409 0 0
2229 1 Ni 58.71 24.6098 17.5498 3.50456 2229 0.262986
140 1 Ni 58.71 14.0488 12.357 1.64086 0 0
2227 1 Ni 58.71 22.8294 17.5236 5.28718 2227 0.448162
179 1 Ni 58.71 15.8863 14.0349 1.73034 0 0
144 1 Ni 58.71 17.5861 12.3951 1.71739 144 0.251822
2225 1 Ni 58.71 21.0595 17.5833 3.61233 2225 0.452344
417 1 Ni 58.71 14.095 0.0227479 7.09047 0 0
148 1 Ni 58.71 21.0979 12.2493 1.80942 148 0.134639
183 1 Ni 58.71 19.3828 14.0457 1.84126 183 0.251363
1190 1 Ni 58.71 26.4214 15.8454 17.544 1190 -0.00150258
421 1 Ni 58.71 17.5697 0.0256512 7.05204 421 0.104248
187 1 Ni 58.71 22.8123 14.0511 1.78728 187 0.512625
609 1 Ni 58.71 7.08358 -0.00316914 10.5474 0 0
152 1 Ni 58.71 24.6337 12.1922 1.70158 152 -0.0821918
2613 1 Ni 58.71 10.5794 17.5704 10.5587 0 0
191 1 Ni 58.71 26.3665 14.0333 1.72805 191 -0.165705
156 1 Ni 58.71 28.1455 12.303 1.74441 156 0.148625
423 1 Ni 58.71 19.3762 0.0158278 8.70127 423 -0.124126
154 1 Ni 58.71 29.8641 12.3402 -0.00451363 154 0.598381
160 1 Ni 58.71 31.659 12.2766 1.79429 160 0.174439
195 1 Ni 58.71 29.9097 14.0934 1.70106 195 -0.112944
197 1 Ni 58.71 31.6685 14.0676 0.0100819 197 0.0468027
158 1 Ni 58.71 33.3927 12.2814 0.0443632 158 0.63619
199 1 Ni 58.71 33.4669 14.037 1.75477 199 -0.288146
2411 1 Ni 58.71 8.83963 17.5817 8.80563 0 0
164 1 Ni 58.71 35.2143 15.8032 1.76784 0 0
439 1 Ni 58.71 33.3986 0.107959 8.83196 439 0.0312713
168 1 Ni 58.71 3.50424 15.8505 1.78297 0 0
172 1 Ni 58.71 7.00408 15.9273 1.84508 0 0
170 1 Ni 58.71 8.78805 15.9664 0.0765224 0 0
176 1 Ni 58.71 10.5003 15.8631 1.70197 0 0
1173 1 Ni 58.71 10.5555 14.1216 17.5787 0 0
178 1 Ni 58.71 15.837 15.8418 0.048327 0 0
180 1 Ni 58.71 14.0119 15.7661 1.72808 0 0
184 1 Ni 58.71 17.6534 15.8722 1.7983 184 -0.234896
1146 1 Ni 58.71 22.9336 12.2797 17.5378 1146 -0.0939934
188 1 Ni 58.71 21.109 15.8054 1.80747 188 -0.151003
3025 1 Ni 58.71 21.1321 17.5717 17.583 3025 0.674468
2409 1 Ni 58.71 7.03059 17.5727 7.0671 0 0
192 1 Ni 58.71 24.5664 15.8426 1.79833 192 0.633345
196 1 Ni 58.71 28.114 15.8662 1.77187 196 0.734488
2003 1 Ni 58.71 1.74716 17.6176 1.77368 0 0
200 1 Ni 58.71 31.6673 15.8638 1.79315 200 -0.0621474
895 1 Ni 58.71 12.3724 7.06135 15.7856 0 0
991 1 Ni 58.71 26.4244 14.088 15.7916 991 -0.358738
202 1 Ni 58.71 1.67393 1.75706 3.58519 0 0
1118 1 Ni 58.71 33.3709 8.79764 17.523 1118 0.308264
204 1 Ni 58.71 35.1983 1.78426 5.3293 0 0
952 1 Ni 58.71 24.6679 12.2507 15.8128 952 0.123716
206 1 Ni 58.71 5.20721 1.67436 3.50263 0 0
987 1 Ni 58.71 22.9248 14.0506 15.8228 987 -0.194887
208 1 Ni 58.71 3.45698 1.75185 5.25358 0 0
983 1 Ni 58.71 19.3623 14.0368 15.8974 983 -0.0594737
212 1 Ni 58.71 6.99192 1.72127 5.25984 0 0
210 1 Ni 58.71 8.82876 1.63945 3.55669 0 0
948 1 Ni 58.71 21.1331 12.2192 15.7913 948 -0.0155312
213 1 Ni 58.71 10.5594 -0.0292185 3.56257 0 0
216 1 Ni 58.71 10.4977 1.70975 5.31196 0 0
214 1 Ni 58.71 12.2954 1.72364 3.47775 0 0
944 1 Ni 58.71 17.5646 12.3193 15.8778 944 0.485579
217 1 Ni 58.71 14.1209 -0.00499444 3.51543 0 0
218 1 Ni 58.71 15.8295 1.82746 3.53685 0 0
219 1 Ni 58.71 15.8578 -0.000441011 5.33032 0 0
220 1 Ni 58.71 14.0382 1.81066 5.27469 0 0
979 1 Ni 58.71 15.8127 14.0622 15.8981 0 0
224 1 Ni 58.71 17.5806 1.77574 5.28608 224 0.289411
222 1 Ni 58.71 19.3799 1.79099 3.51579 222 -0.107455
940 1 Ni 58.71 14.1425 12.3027 15.89 0 0
1157 1 Ni 58.71 31.651 10.6336 17.5597 1157 0.184456
228 1 Ni 58.71 21.1062 1.73546 5.27145 228 0.337042
226 1 Ni 58.71 22.9049 1.80899 3.441 226 0.158188
975 1 Ni 58.71 12.363 14.1 15.8337 0 0
1130 1 Ni 58.71 8.81478 12.3521 17.5994 0 0
230 1 Ni 58.71 26.4378 1.76762 3.56025 230 -0.241367
181 1 Ni 58.71 17.6554 14.1036 0.0663941 181 0.128288
232 1 Ni 58.71 24.668 1.8327 5.30689 232 -0.158968
185 1 Ni 58.71 21.1601 14.0552 0.0312594 185 -0.277279
236 1 Ni 58.71 28.1823 1.77202 5.35526 236 -0.499762
234 1 Ni 58.71 29.9263 1.73495 3.55266 234 0.0223555
971 1 Ni 58.71 8.85442 14.0765 15.8185 0 0
1169 1 Ni 58.71 7.11624 14.0735 17.5382 0 0
240 1 Ni 58.71 31.6942 1.86809 5.37939 240 -0.307206
238 1 Ni 58.71 33.4389 1.78314 3.58494 238 0.0864341
936 1 Ni 58.71 10.5825 12.3009 15.832 0 0
241 1 Ni 58.71 35.2234 3.57334 3.52033 0 0
242 1 Ni 58.71 1.76729 5.31414 3.54196 0 0
243 1 Ni 58.71 1.65199 3.52739 5.28928 0 0
244 1 Ni 58.71 35.1797 5.27434 5.36522 0 0
245 1 Ni 58.71 3.43976 3.49973 3.58417 0 0
246 1 Ni 58.71 5.2918 5.25556 3.52772 0 0
247 1 Ni 58.71 5.28185 3.51757 5.2495 0 0
248 1 Ni 58.71 3.50294 5.2242 5.3436 0 0
249 1 Ni 58.71 7.0677 3.48221 3.54371 0 0
252 1 Ni 58.71 7.09528 5.29877 5.27762 0 0
250 1 Ni 58.71 8.78101 5.31448 3.54244 0 0
251 1 Ni 58.71 8.82301 3.44141 5.28986 0 0
253 1 Ni 58.71 10.5313 3.52836 3.53106 0 0
256 1 Ni 58.71 10.6051 5.34812 5.34782 0 0
254 1 Ni 58.71 12.2509 5.28182 3.54837 0 0
255 1 Ni 58.71 12.2697 3.48006 5.3502 0 0
257 1 Ni 58.71 14.097 3.54046 3.49879 0 0
258 1 Ni 58.71 15.7759 5.29267 3.54397 0 0
259 1 Ni 58.71 15.8492 3.47984 5.28756 0 0
260 1 Ni 58.71 14.0517 5.29983 5.2955 0 0
261 1 Ni 58.71 17.5465 3.52333 3.59859 261 0.741245
264 1 Ni 58.71 17.6136 5.27506 5.34083 264 -0.137344
262 1 Ni 58.71 19.3307 5.32876 3.57992 262 0.304693
263 1 Ni 58.71 19.3849 3.48137 5.27176 263 -0.399459
265 1 Ni 58.71 21.1248 3.52173 3.54234 265 0.0324442
268 1 Ni 58.71 21.0899 5.33096 5.3261 268 0.462457
266 1 Ni 58.71 22.8789 5.25748 3.52977 266 0.187819
267 1 Ni 58.71 22.9003 3.58683 5.24549 267 -0.310342
269 1 Ni 58.71 24.6692 3.543 3.51039 269 -0.160312
270 1 Ni 58.71 26.3871 5.21688 3.51213 270 0.369039
271 1 Ni 58.71 26.4508 3.56175 5.26452 271 -0.41187
272 1 Ni 58.71 24.6382 5.29155 5.2585 272 0.109973
273 1 Ni 58.71 28.168 3.49726 3.55381 273 0.125718
276 1 Ni 58.71 28.1973 5.25104 5.26415 276 -0.2593
274 1 Ni 58.71 29.9439 5.28365 3.47694 274 -0.227975
275 1 Ni 58.71 29.8794 3.51049 5.28371 275 0.550919
277 1 Ni 58.71 31.6831 3.541 3.5441 277 0.119923
280 1 Ni 58.71 31.7384 5.31573 5.30529 280 -0.423499
278 1 Ni 58.71 33.5342 5.30384 3.48205 278 -0.816919
279 1 Ni 58.71 33.4117 3.55269 5.32895 279 0.402349
281 1 Ni 58.71 0.0203048 7.10396 3.52103 0 0
283 1 Ni 58.71 1.78849 6.93949 5.28747 0 0
285 1 Ni 58.71 3.54169 6.98793 3.52855 0 0
287 1 Ni 58.71 5.35544 6.95353 5.22996 0 0
289 1 Ni 58.71 7.09176 6.98426 3.55454 0 0
291 1 Ni 58.71 8.79739 7.06393 5.29965 0 0
293 1 Ni 58.71 10.5573 7.0446 3.60134 0 0
295 1 Ni 58.71 12.3513 7.06027 5.2863 0 0
297 1 Ni 58.71 14.0397 7.08233 3.53956 0 0
299 1 Ni 58.71 15.8298 7.02311 5.33455 0 0
301 1 Ni 58.71 17.5157 7.00253 3.68442 301 0.606001
303 1 Ni 58.71 19.3771 7.0287 5.35927 303 -0.136
305 1 Ni 58.71 21.1893 7.03802 3.49198 305 -0.946882
307 1 Ni 58.71 22.8645 7.08652 5.27914 307 0.349515
309 1 Ni 58.71 24.6503 6.96251 3.47084 309 0.0546991
311 1 Ni 58.71 26.4012 6.99256 5.2942 311 -0.0674821
313 1 Ni 58.71 28.1871 7.0231 3.53926 313 -0.340014
315 1 Ni 58.71 29.9249 7.00119 5.2625 315 0.0641535
317 1 Ni 58.71 31.7025 7.01301 3.54591 317 0.248181
319 1 Ni 58.71 33.5161 7.0289 5.28804 319 -0.449836
282 1 Ni 58.71 1.77331 8.78728 3.56842 0 0
284 1 Ni 58.71 0.0349951 8.77928 5.33317 0 0
321 1 Ni 58.71 0.0289751 10.5835 3.62545 0 0
323 1 Ni 58.71 1.76039 10.5476 5.29236 0 0
286 1 Ni 58.71 5.29334 8.71684 3.47096 0 0
288 1 Ni 58.71 3.46599 8.78632 5.3147 0 0
325 1 Ni 58.71 3.47389 10.5763 3.59278 0 0
327 1 Ni 58.71 5.28451 10.5206 5.22778 0 0
292 1 Ni 58.71 7.06228 8.77378 5.26081 0 0
329 1 Ni 58.71 6.97478 10.5633 3.49405 0 0
290 1 Ni 58.71 8.75659 8.75749 3.50574 0 0
296 1 Ni 58.71 10.6475 8.82478 5.35412 0 0
331 1 Ni 58.71 8.82557 10.4912 5.19439 0 0
333 1 Ni 58.71 10.5486 10.5763 3.45189 0 0
294 1 Ni 58.71 12.3069 8.86077 3.56335 0 0
335 1 Ni 58.71 12.3949 10.613 5.29747 0 0
298 1 Ni 58.71 15.7892 8.78463 3.51394 0 0
300 1 Ni 58.71 14.138 8.77799 5.31622 0 0
337 1 Ni 58.71 14.0628 10.5765 3.44543 0 0
339 1 Ni 58.71 15.9035 10.5258 5.36421 0 0
304 1 Ni 58.71 17.6125 8.76575 5.36955 304 -0.199197
341 1 Ni 58.71 17.6022 10.5342 3.50363 341 -0.391669
302 1 Ni 58.71 19.3173 8.76552 3.57109 302 0.218781
308 1 Ni 58.71 21.148 8.83862 5.32136 308 -0.36287
343 1 Ni 58.71 19.3584 10.5173 5.3572 343 -0.297959
345 1 Ni 58.71 21.095 10.6062 3.51057 345 0.112094
306 1 Ni 58.71 22.8712 8.81407 3.53056 306 0.0787192
347 1 Ni 58.71 22.8785 10.5131 5.28078 347 0.00144348
310 1 Ni 58.71 26.4003 8.8078 3.46214 310 -0.00939079
312 1 Ni 58.71 24.6502 8.85782 5.25499 312 0.129451
349 1 Ni 58.71 24.5985 10.4833 3.48642 349 0.539673
351 1 Ni 58.71 26.4287 10.5587 5.21294 351 0.141588
316 1 Ni 58.71 28.2094 8.74772 5.29443 316 -0.750853
353 1 Ni 58.71 28.1867 10.4863 3.49509 353 -0.0122411
314 1 Ni 58.71 29.8713 8.74784 3.50405 314 0.824936
320 1 Ni 58.71 31.6934 8.73375 5.34475 320 -0.0806374
355 1 Ni 58.71 29.9043 10.5256 5.26065 355 0.150029
357 1 Ni 58.71 31.6826 10.4712 3.53078 357 -0.225315
318 1 Ni 58.71 33.4306 8.83253 3.50896 318 0.336733
359 1 Ni 58.71 33.4498 10.504 5.28302 359 -0.502636
322 1 Ni 58.71 1.69148 12.3162 3.60208 0 0
324 1 Ni 58.71 35.1574 12.2781 5.28784 0 0
361 1 Ni 58.71 35.1591 14.0363 3.51777 0 0
363 1 Ni 58.71 1.78719 14.1674 5.2821 0 0
326 1 Ni 58.71 5.21487 12.3043 3.58332 0 0
328 1 Ni 58.71 3.48015 12.3132 5.33875 0 0
365 1 Ni 58.71 3.51668 14.1032 3.61878 0 0
367 1 Ni 58.71 5.26452 14.1204 5.2723 0 0
332 1 Ni 58.71 6.94943 12.2897 5.26851 0 0
369 1 Ni 58.71 6.96756 14.107 3.54999 0 0
330 1 Ni 58.71 8.74755 12.3027 3.5366 0 0
336 1 Ni 58.71 10.5387 12.2627 5.26773 0 0
371 1 Ni 58.71 8.77535 14.0714 5.20694 0 0
373 1 Ni 58.71 10.5502 14.0919 3.53547 0 0
334 1 Ni 58.71 12.2815 12.2917 3.44194 0 0
375 1 Ni 58.71 12.3678 14.11 5.21969 0 0
338 1 Ni 58.71 15.8031 12.3073 3.51118 0 0
340 1 Ni 58.71 14.1204 12.3163 5.21032 0 0
377 1 Ni 58.71 14.0746 13.9983 3.4659 0 0
379 1 Ni 58.71 15.8545 14.0724 5.18221 0 0
344 1 Ni 58.71 17.5536 12.308 5.23335 344 0.233241
381 1 Ni 58.71 17.5882 14.0434 3.44392 381 0.061939
342 1 Ni 58.71 19.3218 12.2579 3.53824 342 -0.0526061
348 1 Ni 58.71 21.0716 12.2613 5.30794 348 0.475655
383 1 Ni 58.71 19.2666 14.0035 5.31202 383 0.696513
385 1 Ni 58.71 21.1058 14.0079 3.56022 385 0.0843853
346 1 Ni 58.71 22.9535 12.2972 3.50831 346 -0.645746
387 1 Ni 58.71 22.9103 13.964 5.28922 387 -0.138351
350 1 Ni 58.71 26.4439 12.245 3.49336 350 -0.719118
352 1 Ni 58.71 24.6769 12.2481 5.25106 352 -0.00312138
389 1 Ni 58.71 24.6337 14.0429 3.4895 389 0.342164
391 1 Ni 58.71 26.4809 14.0532 5.17302 391 -0.806692
356 1 Ni 58.71 28.1753 12.3391 5.20232 356 0.301525
393 1 Ni 58.71 28.1178 14.0253 3.44826 393 0.767022
354 1 Ni 58.71 29.9052 12.2802 3.49157 354 0.0647868
360 1 Ni 58.71 31.6401 12.292 5.22664 360 0.0503441
395 1 Ni 58.71 29.9257 14.112 5.22497 395 -0.224903
397 1 Ni 58.71 31.6499 14.0965 3.46346 397 0.218545
358 1 Ni 58.71 33.414 12.2826 3.52109 358 -0.177834
399 1 Ni 58.71 33.4381 14.0619 5.23434 399 -0.405896
362 1 Ni 58.71 1.7192 15.8771 3.54269 0 0
364 1 Ni 58.71 35.1944 15.8457 5.26084 0 0
366 1 Ni 58.71 5.30566 15.8941 3.61337 0 0
368 1 Ni 58.71 3.51752 15.8666 5.35328 0 0
372 1 Ni 58.71 6.97812 15.8922 5.36792 0 0
370 1 Ni 58.71 8.72793 15.8643 3.55956 0 0
376 1 Ni 58.71 10.4952 15.8467 5.19878 0 0
374 1 Ni 58.71 12.2996 15.8198 3.51783 0 0
378 1 Ni 58.71 15.8364 15.8356 3.49224 0 0
380 1 Ni 58.71 14.1035 15.8707 5.26947 0 0
384 1 Ni 58.71 17.641 15.8188 5.22118 384 -0.914175
382 1 Ni 58.71 19.3618 15.7976 3.60039 382 0.232531
388 1 Ni 58.71 21.1087 15.8141 5.27985 388 -0.190061
386 1 Ni 58.71 22.8894 15.7931 3.56053 386 -0.521416
390 1 Ni 58.71 26.4192 15.8121 3.40112 390 -0.309642
392 1 Ni 58.71 24.6664 15.7864 5.23161 392 -0.096972
396 1 Ni 58.71 28.1341 15.9417 5.25189 396 -0.172614
394 1 Ni 58.71 29.8947 15.8443 3.52185 394 0.0435555
400 1 Ni 58.71 31.7301 15.8952 5.25495 400 -0.56333
398 1 Ni 58.71 33.415 15.8701 3.507 398 0.281839
932 1 Ni 58.71 7.13211 12.3136 15.7564 0 0
402 1 Ni 58.71 1.74046 1.70196 7.05099 0 0
405 1 Ni 58.71 3.50806 0.0338707 7.0522 0 0
406 1 Ni 58.71 5.28681 1.75621 6.97908 0 0
409 1 Ni 58.71 7.04485 -0.0495443 7.0369 0 0
410 1 Ni 58.71 8.86567 1.72158 7.06561 0 0
967 1 Ni 58.71 5.31955 14.0225 15.8502 0 0
414 1 Ni 58.71 12.3053 1.68377 7.00841 0 0
928 1 Ni 58.71 3.61642 12.3276 15.8426 0 0
418 1 Ni 58.71 15.8415 1.75091 7.11966 0 0
963 1 Ni 58.71 1.76433 14.0079 15.8949 0 0
422 1 Ni 58.71 19.3492 1.77046 7.07917 422 0.0179465
924 1 Ni 58.71 0.0459303 12.2689 15.9228 0 0
426 1 Ni 58.71 22.8966 1.74602 6.99857 426 -0.116707
429 1 Ni 58.71 24.6664 -0.0111215 7.05146 429 -0.223555
430 1 Ni 58.71 26.4111 1.79538 7.04332 430 -0.13394
959 1 Ni 58.71 33.4496 10.5944 15.7686 959 -0.0268193
434 1 Ni 58.71 29.8857 1.75238 7.04059 434 0.155946
437 1 Ni 58.71 31.7029 -0.0308865 7.10267 437 -0.341449
438 1 Ni 58.71 33.4333 1.78364 7.04157 438 -0.101658
441 1 Ni 58.71 35.1575 3.53981 7.07131 0 0
442 1 Ni 58.71 1.77309 5.2965 7.04409 0 0
445 1 Ni 58.71 3.47811 3.46323 7.00877 0 0
446 1 Ni 58.71 5.3178 5.24014 6.97857 0 0
449 1 Ni 58.71 7.14378 3.49634 7.01686 0 0
450 1 Ni 58.71 8.83196 5.27261 6.94082 0 0
453 1 Ni 58.71 10.6057 3.51082 7.10982 0 0
454 1 Ni 58.71 12.3715 5.29921 7.09163 0 0
457 1 Ni 58.71 14.0891 3.49443 7.10833 0 0
458 1 Ni 58.71 15.8231 5.22352 7.05487 0 0
461 1 Ni 58.71 17.5695 3.54427 7.06879 461 0.418895
462 1 Ni 58.71 19.4063 5.2689 7.06609 462 -0.421807
465 1 Ni 58.71 21.122 3.48965 6.97669 465 0.165087
466 1 Ni 58.71 22.9132 5.2758 7.01593 466 -0.315578
469 1 Ni 58.71 24.6245 3.54645 7.02308 469 0.0027905
470 1 Ni 58.71 26.382 5.24127 7.05419 470 -0.154719
473 1 Ni 58.71 28.1461 3.5874 7.07248 473 0.232009
474 1 Ni 58.71 29.916 5.32652 7.04571 474 0.019481
477 1 Ni 58.71 31.6173 3.52484 7.09178 477 0.363434
478 1 Ni 58.71 33.4491 5.25626 7.06212 478 -0.20148
481 1 Ni 58.71 -0.0116327 7.0716 7.1143 0 0
485 1 Ni 58.71 3.602 6.94204 7.02444 0 0
489 1 Ni 58.71 7.09201 7.01568 7.05233 0 0
493 1 Ni 58.71 10.6451 7.0881 7.01347 0 0
497 1 Ni 58.71 14.091 7.05151 7.08433 0 0
501 1 Ni 58.71 17.4891 7.0548 7.1502 501 0.749297
505 1 Ni 58.71 21.1664 7.10435 7.06934 505 -0.366891
509 1 Ni 58.71 24.6366 7.06641 6.99478 509 0.194635
513 1 Ni 58.71 28.0912 7.00697 7.02067 513 0.640275
517 1 Ni 58.71 31.6637 7.0276 7.04478 517 0.435524
482 1 Ni 58.71 1.77495 8.81513 7.07672 0 0
521 1 Ni 58.71 35.1406 10.6106 7.04782 0 0
486 1 Ni 58.71 5.32059 8.74698 6.98028 0 0
525 1 Ni 58.71 3.54087 10.5221 7.05081 0 0
529 1 Ni 58.71 7.04264 10.5275 7.00033 0 0
490 1 Ni 58.71 8.78009 8.81708 7.12886 0 0
533 1 Ni 58.71 10.5516 10.6071 7.0602 0 0
494 1 Ni 58.71 12.3728 8.85106 7.11534 0 0
498 1 Ni 58.71 15.8211 8.8115 7.10811 0 0
537 1 Ni 58.71 14.1081 10.5894 7.10638 0 0
541 1 Ni 58.71 17.6168 10.5676 7.11922 541 0.00521262
502 1 Ni 58.71 19.4143 8.7993 7.08166 502 -0.602059
545 1 Ni 58.71 21.1327 10.564 7.09347 545 -0.148541
506 1 Ni 58.71 22.9065 8.81646 7.07045 506 -0.0657357
510 1 Ni 58.71 26.3784 8.7814 7.01471 510 0.390702
549 1 Ni 58.71 24.7247 10.5702 7.04378 549 -0.531122
553 1 Ni 58.71 28.1423 10.4982 6.98725 553 0.33374
514 1 Ni 58.71 29.9105 8.71301 7.01566 514 0.157106
557 1 Ni 58.71 31.6213 10.6105 7.04358 557 0.158084
518 1 Ni 58.71 33.4086 8.81247 7.09898 518 0.490201
522 1 Ni 58.71 1.67956 12.3373 7.02597 0 0
561 1 Ni 58.71 35.1661 14.0738 6.98792 0 0
526 1 Ni 58.71 5.28193 12.2993 7.01855 0 0
565 1 Ni 58.71 3.50793 14.1156 7.09101 0 0
569 1 Ni 58.71 7.02988 14.0663 6.96123 0 0
530 1 Ni 58.71 8.80474 12.3415 7.0194 0 0
573 1 Ni 58.71 10.5819 14.0684 6.94252 0 0
534 1 Ni 58.71 12.2902 12.3356 6.97721 0 0
538 1 Ni 58.71 15.8429 12.3798 7.03007 0 0
577 1 Ni 58.71 14.0638 14.1214 6.95141 0 0
581 1 Ni 58.71 17.5688 14.1182 7.07059 581 0.220059
542 1 Ni 58.71 19.3551 12.3454 7.07433 542 -0.146215
585 1 Ni 58.71 21.1359 14.1147 7.05237 585 -0.423791
546 1 Ni 58.71 22.9329 12.2355 7.06256 546 -0.185824
550 1 Ni 58.71 26.4133 12.3546 6.97933 550 0.412578
589 1 Ni 58.71 24.6962 14.0697 7.06814 589 -0.614311
593 1 Ni 58.71 28.1501 14.1112 6.99788 593 -0.085608
554 1 Ni 58.71 29.8797 12.3758 7.06319 554 -0.0486897
597 1 Ni 58.71 31.6487 14.1528 7.00216 597 0.307401
558 1 Ni 58.71 33.3782 12.3409 6.99633 558 -0.171447
562 1 Ni 58.71 1.70805 15.9449 6.99788 0 0
566 1 Ni 58.71 5.28731 15.8688 7.07977 0 0
570 1 Ni 58.71 8.80128 15.8121 7.03947 0 0
574 1 Ni 58.71 12.3316 15.7992 6.90477 0 0
578 1 Ni 58.71 15.8431 15.8167 6.98428 0 0
582 1 Ni 58.71 19.2983 15.8598 6.98728 582 0.315974
586 1 Ni 58.71 22.8464 15.7617 7.02667 586 0.591323
590 1 Ni 58.71 26.3394 15.7954 7.03727 590 0.417732
594 1 Ni 58.71 29.8756 15.8744 6.95598 594 0.254826
598 1 Ni 58.71 33.4809 15.9032 6.99015 598 -0.336589
955 1 Ni 58.71 29.9417 10.6023 15.8105 955 -0.13028
404 1 Ni 58.71 35.1645 1.79085 8.80573 0 0
920 1 Ni 58.71 31.6702 8.77585 15.7481 920 -0.170382
602 1 Ni 58.71 1.80543 1.70011 10.5758 0 0
407 1 Ni 58.71 5.31403 -0.0149085 8.85274 0 0
408 1 Ni 58.71 3.45835 1.78778 8.83977 0 0
916 1 Ni 58.71 28.2238 8.84034 15.7939 916 -0.221467
606 1 Ni 58.71 5.27999 1.73886 10.5947 0 0
412 1 Ni 58.71 7.03906 1.73426 8.7948 0 0
951 1 Ni 58.71 26.4441 10.5469 15.8457 951 0.192409
193 1 Ni 58.71 28.1351 14.0115 0.0141038 193 -0.500674
416 1 Ni 58.71 10.5417 1.71843 8.79189 0 0
610 1 Ni 58.71 8.851 1.78273 10.5501 0 0
1121 1 Ni 58.71 35.1768 10.5177 17.5555 0 0
912 1 Ni 58.71 24.6953 8.80398 15.9276 912 -0.147485
614 1 Ni 58.71 12.3046 1.76289 10.4638 0 0
419 1 Ni 58.71 15.8638 0.0150829 8.86725 0 0
420 1 Ni 58.71 14.0752 1.72727 8.82407 0 0
947 1 Ni 58.71 22.8691 10.5151 15.8622 947 0.444136
618 1 Ni 58.71 15.8756 1.78661 10.6065 0 0
424 1 Ni 58.71 17.6334 1.72872 8.77794 424 -0.17429
621 1 Ni 58.71 17.596 0.0809042 10.6139 621 0.170307
943 1 Ni 58.71 19.3778 10.5067 15.8892 943 -0.108613
428 1 Ni 58.71 21.1314 1.77591 8.79562 428 -0.0228059
622 1 Ni 58.71 19.4179 1.71555 10.5653 622 -0.06387
1081 1 Ni 58.71 0.0418215 7.09153 17.4482 0 0
427 1 Ni 58.71 22.8863 0.0564852 8.79126 427 0.241017
626 1 Ni 58.71 22.8984 1.80987 10.5479 626 -0.149216
1077 1 Ni 58.71 31.6834 3.47769 17.5372 1077 -0.176769
432 1 Ni 58.71 24.6446 1.82622 8.77433 432 -0.0608742
629 1 Ni 58.71 24.629 -0.0451577 10.518 629 0.0754421
630 1 Ni 58.71 26.3413 1.75594 10.507 630 0.346497
436 1 Ni 58.71 28.1095 1.74939 8.76393 436 0.188421
908 1 Ni 58.71 21.1559 8.7685 15.856 908 -0.0656481
904 1 Ni 58.71 17.6421 8.78641 15.8678 904 -0.00375759
440 1 Ni 58.71 31.6191 1.84905 8.77717 440 0.293548
634 1 Ni 58.71 29.8647 1.76283 10.5935 634 0.0134529
637 1 Ni 58.71 31.6689 0.0180328 10.5654 637 -0.139912
939 1 Ni 58.71 15.8675 10.5759 15.8499 0 0
638 1 Ni 58.71 33.4303 1.75408 10.5667 638 -0.0101192
443 1 Ni 58.71 1.73194 3.54102 8.80873 0 0
444 1 Ni 58.71 0.0608623 5.27426 8.82263 0 0
641 1 Ni 58.71 35.1709 3.49033 10.5491 0 0
642 1 Ni 58.71 1.7836 5.24298 10.5306 0 0
447 1 Ni 58.71 5.33565 3.46318 8.74234 0 0
448 1 Ni 58.71 3.61689 5.24734 8.7956 0 0
645 1 Ni 58.71 3.50969 3.48421 10.5606 0 0
646 1 Ni 58.71 5.30825 5.2291 10.5573 0 0
452 1 Ni 58.71 7.14072 5.23296 8.75888 0 0
649 1 Ni 58.71 7.09529 3.51802 10.5518 0 0
451 1 Ni 58.71 8.83847 3.53757 8.77613 0 0
456 1 Ni 58.71 10.5717 5.28604 8.78694 0 0
650 1 Ni 58.71 8.82899 5.27137 10.5784 0 0
653 1 Ni 58.71 10.5566 3.48526 10.5492 0 0
455 1 Ni 58.71 12.3126 3.50646 8.75762 0 0
654 1 Ni 58.71 12.3831 5.27273 10.6092 0 0
459 1 Ni 58.71 15.85 3.41986 8.84628 0 0
460 1 Ni 58.71 14.0975 5.24654 8.87603 0 0
657 1 Ni 58.71 14.0801 3.45026 10.623 0 0
658 1 Ni 58.71 15.8185 5.20288 10.6502 0 0
464 1 Ni 58.71 17.6122 5.2072 8.87232 464 -0.488035
661 1 Ni 58.71 17.5776 3.47002 10.6155 661 0.803759
463 1 Ni 58.71 19.3371 3.46441 8.82486 463 0.484061
468 1 Ni 58.71 21.2004 5.32241 8.79095 468 -0.509483
662 1 Ni 58.71 19.3849 5.23778 10.5483 662 0.015183
665 1 Ni 58.71 21.113 3.51383 10.6038 665 0.55523
467 1 Ni 58.71 22.8324 3.50462 8.79208 467 0.368689
666 1 Ni 58.71 22.9552 5.26092 10.5757 666 -0.618213
471 1 Ni 58.71 26.3482 3.60585 8.78012 471 0.361138
472 1 Ni 58.71 24.6492 5.26166 8.77759 472 -0.566277
669 1 Ni 58.71 24.6352 3.49893 10.5786 669 0.0902153
670 1 Ni 58.71 26.3769 5.29329 10.522 670 -0.164341
476 1 Ni 58.71 28.1363 5.29111 8.75943 476 0.349824
673 1 Ni 58.71 28.0985 3.5396 10.4892 673 -0.0148957
475 1 Ni 58.71 29.9056 3.55145 8.79348 475 -0.375688
480 1 Ni 58.71 31.6837 5.2439 8.79628 480 -0.257327
674 1 Ni 58.71 29.8839 5.31526 10.5795 674 0.477272
677 1 Ni 58.71 31.6865 3.47081 10.6018 677 -0.534377
479 1 Ni 58.71 33.42 3.54662 8.84354 479 0.0901428
678 1 Ni 58.71 33.4189 5.34518 10.5777 678 0.186193
483 1 Ni 58.71 1.76909 6.9965 8.83625 0 0
681 1 Ni 58.71 -0.0401132 7.09437 10.4729 0 0
487 1 Ni 58.71 5.39378 6.97699 8.82088 0 0
685 1 Ni 58.71 3.55255 7.05192 10.6095 0 0
689 1 Ni 58.71 7.14636 6.99906 10.6048 0 0
491 1 Ni 58.71 8.89755 7.05582 8.8564 0 0
693 1 Ni 58.71 10.6184 7.04737 10.567 0 0
495 1 Ni 58.71 12.3598 7.03208 8.82794 0 0
499 1 Ni 58.71 15.8079 6.9886 8.88664 0 0
697 1 Ni 58.71 14.1631 7.06422 10.654 0 0
701 1 Ni 58.71 17.5983 7.03149 10.6278 701 -0.264636
503 1 Ni 58.71 19.2903 7.00221 8.7888 503 0.663907
705 1 Ni 58.71 21.1483 7.0566 10.5909 705 -0.0940936
507 1 Ni 58.71 22.9026 7.10138 8.7145 507 -0.0485543
511 1 Ni 58.71 26.4376 7.03815 8.77978 511 -0.660471
709 1 Ni 58.71 24.5699 7.03074 10.4892 709 0.644392
713 1 Ni 58.71 28.1709 7.04697 10.5285 713 0.01724
515 1 Ni 58.71 29.947 7.02455 8.79367 515 -0.257358
717 1 Ni 58.71 31.6311 7.12203 10.5112 717 0.493293
519 1 Ni 58.71 33.3841 7.01078 8.79042 519 0.45241
484 1 Ni 58.71 0.0406298 8.86145 8.80852 0 0
523 1 Ni 58.71 1.75798 10.5609 8.78837 0 0
682 1 Ni 58.71 1.83049 8.82615 10.5217 0 0
721 1 Ni 58.71 35.1981 10.6503 10.4305 0 0
488 1 Ni 58.71 3.61333 8.73727 8.85013 0 0
527 1 Ni 58.71 5.30996 10.5381 8.76739 0 0
686 1 Ni 58.71 5.32881 8.76756 10.6016 0 0
725 1 Ni 58.71 3.53931 10.6299 10.5026 0 0
492 1 Ni 58.71 7.11172 8.76936 8.85372 0 0
729 1 Ni 58.71 7.06532 10.5813 10.5701 0 0
496 1 Ni 58.71 10.5959 8.83046 8.79791 0 0
531 1 Ni 58.71 8.8466 10.5739 8.80843 0 0
690 1 Ni 58.71 8.85355 8.77942 10.6231 0 0
733 1 Ni 58.71 10.6486 10.6143 10.529 0 0
535 1 Ni 58.71 12.3832 10.5741 8.84511 0 0
694 1 Ni 58.71 12.3951 8.79717 10.6078 0 0
500 1 Ni 58.71 14.1086 8.89908 8.83836 0 0
539 1 Ni 58.71 15.9078 10.598 8.8832 0 0
698 1 Ni 58.71 15.813 8.87634 10.6421 0 0
737 1 Ni 58.71 14.088 10.6418 10.5682 0 0
504 1 Ni 58.71 17.5707 8.80756 8.90377 504 0.181611
741 1 Ni 58.71 17.6264 10.6551 10.5967 741 -0.149767