ITEM: TIMESTEP
4500
ITEM: NUMBER OF ATOMS
20000
ITEM: BOX BOUNDS pp pp pp
-1.7832477898767962e-02 3.6167832477898976e+01
-1.7555210524204057e-02 3.6167555210524085e+01
-9.4056238064524678e-02 1.8084405623806566e+02
ITEM: ATOMS id type mass x y z vx vy vz
1 1 63.55 -0.052049 -0.0567524 -0.140218 1.72879 -0.341075 -1.24018
2 1 63.55 1.7344 1.7371 -0.0575329 -0.625314 0.825006 0.496503
3 1 63.55 1.737 -0.0602706 1.68166 1.65164 0.531353 2.08947
4 1 63.55 -0.0421252 1.74384 1.68019 -0.679153 -0.0307353 0.44897
5 1 63.55 3.64141 -0.0445633 -0.0430598 -0.283911 -2.38099 0.0576329
8 1 63.55 3.5672 1.78049 1.69553 -1.56423 -0.601408 -1.07321
41 1 63.55 -0.0025412 3.57455 -0.115499 -1.49044 0.430956 2.15422
43 1 63.55 1.77374 3.58099 1.70592 -0.00155846 -0.456758 -0.924777
45 1 63.55 3.65046 3.57931 -0.0558476 -0.986191 0.454542 -0.881442
6 1 63.55 5.38515 1.74676 -0.0694698 -0.71732 -0.32124 -0.200536
7 1 63.55 5.38126 -0.0579035 1.73858 0.225582 0.256229 -0.830498
9 1 63.55 7.14886 -0.0464333 -0.0551402 -0.165388 1.12227 0.478717
12 1 63.55 7.19913 1.80609 1.75868 0.0825683 -0.863545 0.00732752
47 1 63.55 5.41363 3.57448 1.74939 0.229626 0.229061 -1.26965
49 1 63.55 7.1595 3.59276 -0.0849687 -0.200521 -0.167577 1.35333
10 1 63.55 9.00416 1.75235 -0.132152 -0.462319 0.160962 -1.57884
11 1 63.55 9.00396 -0.0955111 1.69093 -0.438727 -0.356901 1.18198
13 1 63.55 10.8165 -0.0154351 -0.123592 0.137999 -0.508298 0.55974
16 1 63.55 10.7718 1.76664 1.63969 0.180961 1.42797 0.961028
51 1 63.55 8.99048 3.58632 1.70832 1.15786 -0.933147 1.2184
53 1 63.55 10.8101 3.56531 -0.0662216 -1.12362 -0.464711 0.815869
14 1 63.55 12.6186 1.79317 -0.0742053 0.0688897 0.572965 0.720389
15 1 63.55 12.5916 -0.0344332 1.70975 -0.186684 -1.41118 1.14524
17 1 63.55 14.4536 0.0261614 -0.0988658 -0.656113 0.644166 0.641164
20 1 63.55 14.4297 1.85026 1.68207 1.71774 -1.26886 -0.472833
55 1 63.55 12.5652 3.64396 1.72208 0.15466 -1.94089 0.14737
57 1 63.55 14.4045 3.65588 -0.0422352 0.223599 -0.214433 -0.673284
18 1 63.55 16.2437 1.78509 -0.0768444 -0.154301 0.321354 1.93344
19 1 63.55 16.2604 -0.0542733 1.73819 1.58199 0.0152992 -0.971489
59 1 63.55 16.2811 3.59341 1.68729 -0.429843 0.311063 -2.01758
21 1 63.55 18.0482 -0.0105308 -0.101006 -0.89149 1.62545 -1.23019
22 1 63.55 19.8655 1.81996 -0.0855562 -0.0548532 1.06625 0.332118
23 1 63.55 19.8964 0.008503 1.68166 0.365961 -1.00343 -0.71948
24 1 63.55 18.0973 1.75669 1.68638 -0.0812926 -0.547428 -0.58032
25 1 63.55 21.6708 0.00701755 -0.138968 -0.338783 -0.487682 -0.22248
28 1 63.55 21.7535 1.78854 1.68592 -0.293161 1.25173 0.597296
61 1 63.55 18.0851 3.57787 -0.0609177 -0.141965 -0.992742 0.334854
63 1 63.55 19.9414 3.57185 1.74179 -0.21067 0.787904 1.1189
65 1 63.55 21.7255 3.58384 -0.0561863 -0.414307 0.974685 0.409026
26 1 63.55 23.529 1.80999 -0.0769157 0.686997 -0.237969 -0.605542
27 1 63.55 23.496 -0.0204648 1.69998 -1.66317 -0.863542 0.429363
29 1 63.55 25.3216 -0.0100688 -0.0710453 0.376207 -0.299642 -0.0446677
32 1 63.55 25.2931 1.76102 1.75263 -2.30558 0.516748 0.681312
67 1 63.55 23.5056 3.60668 1.76748 1.66756 -0.792628 -1.45299
69 1 63.55 25.3396 3.58103 -0.0368661 -0.71422 -1.62614 -0.182316
30 1 63.55 27.1915 1.74374 -0.0680553 -0.558664 -0.0115544 -0.230958
31 1 63.55 27.1427 -0.0146109 1.75272 0.5913 1.11664 -0.768044
33 1 63.55 28.9447 -0.0206332 -0.0939901 0.318198 -0.311751 -1.09594
36 1 63.55 28.9868 1.80114 1.706 -0.778768 -0.178772 -1.42367
71 1 63.55 27.1062 3.59511 1.68063 -1.66354 -0.51444 1.15587
73 1 63.55 28.9472 3.61509 -0.0994757 -1.58256 -0.665097 -0.2221
34 1 63.55 30.7462 1.7615 -0.134274 -0.301979 0.228889 1.2559
35 1 63.55 30.6973 -0.0410103 1.70391 -0.262472 -1.06532 -0.32289
75 1 63.55 30.7871 3.58678 1.67866 -0.0936735 -0.187056 -0.25824
37 1 63.55 32.5404 -0.0942773 -0.101156 0.484659 1.0482 0.439299
38 1 63.55 34.309 1.8175 -0.126697 0.922007 -0.9463 0.346405
39 1 63.55 34.3562 -0.0784036 1.65981 -0.508082 1.74496 -0.395411
40 1 63.55 32.5471 1.75967 1.67376 -0.0532925 0.433247 0.176647
77 1 63.55 32.5156 3.55599 -0.139495 -0.0366632 0.189002 0.235947
79 1 63.55 34.3472 3.55121 1.69831 -0.459458 -0.781291 0.402533
42 1 63.55 1.78295 5.401 -0.0482192 0.694872 -1.36554 0.650134
44 1 63.55 -0.0494897 5.35293 1.74652 0.157026 0.162087 -0.741796
48 1 63.55 3.60912 5.39652 1.71938 0.775325 0.152857 -0.34637
81 1 63.55 -0.0308635 7.19756 -0.0822611 0.0920035 -0.0221678 0.447603
83 1 63.55 1.77151 7.18262 1.74081 -0.178537 -1.4811 -1.3038
85 1 63.55 3.60701 7.19526 -0.0882012 -0.596156 -0.99936 -0.0405043
46 1 63.55 5.37005 5.40764 -0.0612073 0.271318 -0.189134 0.420182
52 1 63.55 7.22199 5.43902 1.70282 1.21666 -1.33587 1.6542
87 1 63.55 5.38687 7.16881 1.68806 -0.985102 1.40533 1.46889
89 1 63.55 7.18257 7.23342 -0.0934216 -0.542929 -0.752225 -0.86542
50 1 63.55 9.02116 5.37784 -0.0323937 -0.00367303 -1.3462 -0.550561
56 1 63.55 10.7889 5.42811 1.71437 0.102761 -0.024324 -1.39036
91 1 63.55 8.93261 7.27211 1.69166 1.0438 -0.900642 -0.753239
93 1 63.55 10.8026 7.25157 -0.115882 -1.24693 -0.878106 -0.22058
54 1 63.55 12.5435 5.38959 -0.118167 -2.33715 0.0360445 0.274261
60 1 63.55 14.4114 5.38918 1.71091 1.50554 1.08213 -0.0402803
95 1 63.55 12.589 7.21747 1.76136 1.07517 0.496896 0.702464
97 1 63.55 14.4021 7.21947 -0.0450042 -1.61038 1.48319 -0.537192
58 1 63.55 16.2251 5.42398 -0.117021 1.15048 0.89324 -1.08292
99 1 63.55 16.2599 7.17908 1.76553 -1.04525 -0.655958 -0.268319
62 1 63.55 19.8624 5.41287 -0.0416956 -0.582919 1.07959 0.0311519
64 1 63.55 18.0927 5.41445 1.69141 -0.755435 -0.721901 -0.861812
68 1 63.55 21.7284 5.45283 1.70099 -0.419165 -0.28446 -0.469391
101 1 63.55 18.0508 7.2465 -0.116416 -0.542965 -0.306383 -1.22488
103 1 63.55 19.8263 7.26315 1.75215 1.03648 -1.30644 0.889525
105 1 63.55 21.6087 7.22685 -0.0809844 -0.827112 1.62982 0.703049
66 1 63.55 23.4794 5.39629 -0.105234 -0.256103 0.680358 -0.617426
72 1 63.55 25.3523 5.39269 1.69936 0.00663796 0.194513 -1.17796
107 1 63.55 23.5156 7.22778 1.70973 -0.0441988 0.371961 -0.629199
109 1 63.55 25.3 7.22129 -0.0585749 -0.272807 0.10472 1.47241
70 1 63.55 27.1771 5.44139 -0.0587775 -0.145178 -0.47875 -0.615211
76 1 63.55 28.8962 5.41294 1.67586 -0.279329 0.810257 0.543883
111 1 63.55 27.0751 7.29955 1.76183 1.7154 0.631018 -0.992372
113 1 63.55 28.9235 7.22016 -0.0613958 0.42065 0.697413 1.95803
74 1 63.55 30.7379 5.43543 -0.068768 0.0663611 -0.551432 -1.60056
115 1 63.55 30.7323 7.19976 1.74285 0.0433955 0.508788 -0.348682
78 1 63.55 34.3242 5.38265 -0.126655 -0.810878 -0.235788 0.319642
80 1 63.55 32.5675 5.33361 1.71275 -0.222758 1.12524 0.693492
117 1 63.55 32.5778 7.19351 -0.0825803 -0.318924 -0.0283177 0.564801
119 1 63.55 34.3382 7.19417 1.70242 -0.677967 0.125461 -1.02896
82 1 63.55 1.7941 8.9947 -0.107385 0.479739 0.0800389 -0.83725
84 1 63.55 -0.0495063 8.994 1.75375 -0.21208 1.35157 0.114533
88 1 63.55 3.60371 8.9787 1.68953 0.469642 -1.09999 -0.0829487
121 1 63.55 0.0439357 10.8179 -0.0885898 1.60288 -0.775181 1.75281
123 1 63.55 1.7101 10.8334 1.71664 -0.0371986 -0.490865 0.130883
125 1 63.55 3.53712 10.8465 -0.063571 0.597394 0.777349 -1.11684
86 1 63.55 5.40535 9.08194 -0.171391 -0.215418 -0.903748 0.586444
92 1 63.55 7.07467 9.08891 1.69425 -0.162347 0.959941 1.07838
127 1 63.55 5.3261 10.8775 1.70676 0.133566 0.838018 0.445244
129 1 63.55 7.17542 10.8383 -0.139444 -0.740283 -0.888466 -0.269883
90 1 63.55 8.98279 9.04401 -0.0774767 0.890943 -0.27405 0.26838
96 1 63.55 10.7793 8.99336 1.74615 0.662018 0.305537 0.938996
131 1 63.55 8.99858 10.8259 1.69144 -0.187384 -0.983169 1.14355
133 1 63.55 10.7448 10.8291 -0.10095 -0.393095 -1.22449 -0.787244
94 1 63.55 12.5658 9.00816 -0.0730535 -0.549672 -0.0260013 1.15001
100 1 63.55 14.4609 8.98297 1.6861 0.800606 0.510842 1.0882
135 1 63.55 12.6339 10.8045 1.69836 -0.205599 -1.37299 -1.87902
137 1 63.55 14.4157 10.7381 -0.102743 0.391687 0.830731 0.119362
98 1 63.55 16.2762 9.00752 -0.12052 -0.0323544 -0.0367547 -0.775992
139 1 63.55 16.2371 10.8419 1.75226 -0.109234 0.604117 -1.02865
102 1 63.55 19.8527 9.02388 -0.063722 1.06004 -0.499973 0.373997
104 1 63.55 18.021 9.03375 1.77815 0.078135 0.0124334 0.32537
108 1 63.55 21.7096 8.95671 1.78416 -0.0134172 1.041 -0.0845272
141 1 63.55 18.0682 10.8492 -0.0188317 -1.34263 0.866059 -0.092626
143 1 63.55 19.893 10.7854 1.72136 -1.647 -0.816178 0.317146
145 1 63.55 21.6858 10.7492 -0.0878382 -0.121832 0.0496793 0.725462
106 1 63.55 23.5029 9.0262 -0.0412086 -0.119783 -0.152259 -0.645123
112 1 63.55 25.2633 9.04957 1.8028 -0.637824 0.325778 -0.0342947
147 1 63.55 23.4396 10.7924 1.74133 1.59282 -0.726317 0.388167
149 1 63.55 25.3146 10.7948 -0.0749376 0.192333 0.457391 1.31956
110 1 63.55 27.1096 9.06626 -0.0592941 -0.0105406 -0.518792 0.735793
116 1 63.55 28.9087 9.0401 1.7013 -1.66013 -1.33037 0.288567
151 1 63.55 27.0792 10.8037 1.74123 0.397154 -0.176334 -0.984264
153 1 63.55 28.9581 10.8364 -0.0947528 0.856086 -0.51987 -1.71889
114 1 63.55 30.7338 8.98087 -0.109838 -1.0988 -0.39487 -1.4072
155 1 63.55 30.7517 10.8284 1.73461 -0.598863 0.545971 0.390991
118 1 63.55 34.3623 9.00683 -0.0955697 0.997045 -1.57272 0.0166939
120 1 63.55 32.536 9.04558 1.76933 -0.45649 1.12674 -0.508496
157 1 63.55 32.5061 10.8612 -0.0889433 0.409929 0.797531 0.571529
159 1 63.55 34.3865 10.8135 1.69405 -0.238591 -1.03403 -1.99119
122 1 63.55 1.73412 12.6582 -0.0244927 -0.171631 -1.13041 -0.00738198
124 1 63.55 -0.0370039 12.6991 1.76433 -0.472726 0.415007 1.16743
128 1 63.55 3.52059 12.7157 1.77431 -0.946001 0.21835 0.266021
161 1 63.55 0.0261128 14.4833 -0.107473 0.240482 -0.425255 1.53069
163 1 63.55 1.75993 14.5311 1.75288 -0.803622 1.08407 -1.48526
165 1 63.55 3.5319 14.4507 -0.0889748 -0.277427 -0.339344 -0.346833
126 1 63.55 5.29676 12.6601 -0.093779 -0.24088 0.0210488 0.162836
132 1 63.55 7.19968 12.6007 1.70702 -0.274246 -0.341856 0.310639
167 1 63.55 5.34684 14.4962 1.74073 1.19804 0.692377 -1.08438
169 1 63.55 7.15777 14.3982 -0.0223761 0.605376 -0.14831 -0.510222
130 1 63.55 9.00742 12.6868 -0.10469 -0.0155867 1.6202 0.147275
136 1 63.55 10.8256 12.6344 1.66043 0.245744 -0.288909 0.465902
171 1 63.55 9.03724 14.4868 1.7678 -0.283479 -0.654947 -1.08076
173 1 63.55 10.8663 14.4497 -0.096658 -0.856607 0.116617 -0.614583
134 1 63.55 12.602 12.5812 -0.11692 0.592913 0.79665 -0.296593
140 1 63.55 14.4132 12.6328 1.68952 0.861675 -0.262884 0.915504
175 1 63.55 12.7038 14.4303 1.65677 -0.822719 -0.591844 -0.00478268
177 1 63.55 14.484 14.4121 -0.0903702 0.671975 -0.0745158 -0.429985
138 1 63.55 16.2378 12.5581 -0.100761 -0.101583 -0.867758 0.12598
179 1 63.55 16.2565 14.3924 1.67227 -0.283671 1.21673 0.130858
142 1 63.55 19.864 12.6502 -0.0333589 1.24552 -0.17628 -0.514857
144 1 63.55 18.0335 12.6038 1.72427 -0.261479 1.16264 -0.161797
148 1 63.55 21.6555 12.6374 1.73299 -0.243241 0.625058 0.134908
181 1 63.55 18.0128 14.464 -0.0646608 -1.38958 0.867725 -0.171572
183 1 63.55 19.8253 14.4716 1.76912 -0.487562 -1.30832 -0.526614
185 1 63.55 21.6575 14.4679 -0.0146811 0.558983 -0.360429 0.826956
146 1 63.55 23.4676 12.6222 -0.0350471 0.562023 1.12222 -0.0570779
152 1 63.55 25.2656 12.6302 1.70249 -0.571476 -2.26654 0.543113
187 1 63.55 23.4617 14.464 1.73608 0.810522 -1.69511 0.390767
189 1 63.55 25.3093 14.4677 -0.00492115 -0.681563 0.212057 0.601705
150 1 63.55 27.074 12.652 -0.0963287 0.445068 -0.610586 1.06494
156 1 63.55 28.9196 12.6659 1.69746 -1.31356 -0.607592 0.562046
191 1 63.55 27.0999 14.4561 1.69919 0.39348 0.525866 -1.15447
193 1 63.55 28.961 14.4798 -0.138719 -0.597508 0.94609 -0.221483
154 1 63.55 30.7575 12.6701 -0.105634 1.52236 0.17065 0.547574
195 1 63.55 30.7461 14.447 1.72976 -0.502638 0.573732 1.60256
158 1 63.55 34.3845 12.6238 -0.0774028 -0.613989 -2.80802 -0.584474
160 1 63.55 32.5652 12.6276 1.76174 0.255583 1.62078 -2.26698
197 1 63.55 32.538 14.4292 -0.0787193 0.145609 0.182974 0.228338
199 1 63.55 34.3836 14.4676 1.6869 1.17938 -0.164488 0.118848
162 1 63.55 1.81978 16.3113 -0.117451 -0.224906 -0.0257184 -0.559955
164 1 63.55 -0.0202619 16.3325 1.69921 0.00471909 -0.750383 0.472339
168 1 63.55 3.5796 16.3242 1.72146 -0.94446 -0.543028 -0.202562
166 1 63.55 5.37227 16.2621 -0.0913847 -0.440793 0.367396 -0.0729454
172 1 63.55 7.17915 16.2647 1.74729 1.20605 0.110422 -0.741232
170 1 63.55 9.02432 16.2981 -0.0756505 0.0901884 0.245701 0.0281207
176 1 63.55 10.8671 16.2834 1.78389 -0.0437659 -0.611993 -0.0708303
174 1 63.55 12.6373 16.2601 -0.0868316 -0.0516079 0.554382 -1.42824
180 1 63.55 14.457 16.2405 1.70325 0.605502 -0.921886 -0.440127
178 1 63.55 16.2725 16.3366 -0.0788504 0.550163 1.05537 -0.685323
182 1 63.55 19.8384 16.2984 -0.067071 0.95919 0.980654 0.557959
184 1 63.55 18.0242 16.2448 1.71867 0.623259 0.737824 -0.907193
188 1 63.55 21.6922 16.2767 1.70282 -0.263559 0.362725 0.290722
186 1 63.55 23.5033 16.2833 -0.0942764 0.586244 -1.0843 -0.956419
192 1 63.55 25.2952 16.2935 1.74315 0.231004 -0.193473 0.187008
190 1 63.55 27.1224 16.2566 -0.0552083 0.396315 0.76827 -0.238071
196 1 63.55 28.9368 16.2445 1.72037 -0.848064 1.38867 -0.461619
194 1 63.55 30.6905 16.2494 -0.0296482 -1.21474 -0.0413825 -0.0546165
198 1 63.55 34.3418 16.2731 -0.118185 0.346415 0.733239 0.824239
200 1 63.55 32.5494 16.2732 1.71039 0.328815 -1.66254 -0.0021941
201 1 63.55 0.00647463 18.1372 -0.123192 -0.346758 -0.427415 -0.322553
202 1 63.55 1.765 19.9556 -0.113775 -0.203696 0.110192 0.190181
203 1 63.55 1.83159 18.1607 1.72245 -1.03627 2.62872 0.751986
204 1 63.55 -0.0796842 19.9282 1.64894 0.0531357 1.53711 -1.21607
205 1 63.55 3.59968 18.1423 -0.113862 1.17479 -0.657791 -0.177095
208 1 63.55 3.63032 19.9208 1.70766 0.607727 -0.553172 1.16989
241 1 63.55 -0.0604112 21.7347 -0.107487 -0.681844 1.27575 -0.817151
243 1 63.55 1.78732 21.7056 1.67532 0.445868 0.187665 0.269966
245 1 63.55 3.63782 21.6607 -0.09648 -0.975209 1.7196 -0.762442
206 1 63.55 5.41632 19.8996 -0.0472441 0.0780878 0.936497 -0.320696
207 1 63.55 5.40532 18.0269 1.76086 0.89441 0.170237 0.751238
209 1 63.55 7.19709 18.1049 -0.0854277 0.309913 0.224709 -1.91107
212 1 63.55 7.23704 19.9122 1.64313 -0.133583 -1.35473 0.0900752
247 1 63.55 5.41661 21.7092 1.71621 -0.496108 0.334114 -1.70613
249 1 63.55 7.26265 21.7143 -0.12935 0.135037 0.0778497 0.64873
210 1 63.55 9.02668 19.8447 -0.139586 -0.757884 0.131237 1.55318
211 1 63.55 9.02896 18.1278 1.72898 0.73656 0.432705 1.11728
213 1 63.55 10.8286 18.0866 -0.149571 -0.428056 -0.313641 -1.0117
216 1 63.55 10.841 19.8616 1.73092 -0.708682 -0.245382 -0.434784
251 1 63.55 9.11058 21.6746 1.66871 0.0629741 -0.549914 -0.978475
253 1 63.55 10.8472 21.6462 -0.131236 -0.0642163 -0.584022 0.33057
214 1 63.55 12.6404 19.926 -0.103617 0.0220494 -0.824649 1.07622
215 1 63.55 12.6367 18.1211 1.80855 1.31963 0.446186 -0.276293
217 1 63.55 14.4282 18.0621 -0.0740148 0.492502 -0.193396 -0.723632
220 1 63.55 14.3913 19.957 1.75464 0.75264 0.677343 -0.764294
255 1 63.55 12.5745 21.6972 1.67497 1.07026 1.75825 0.165303
257 1 63.55 14.4377 21.7139 -0.0791171 0.0908724 -0.150336 0.728794
218 1 63.55 16.2106 19.8073 -0.103891 0.464619 -0.923029 -1.62236
219 1 63.55 16.2574 18.0873 1.69401 -0.157012 -0.0846886 0.916299
259 1 63.55 16.2652 21.7066 1.71668 0.268778 0.749396 0.214951
221 1 63.55 18.1052 18.1157 -0.0460705 -0.876136 0.340028 0.516843
222 1 63.55 19.9364 19.933 -0.0695211 -0.338438 0.0842086 1.69003
223 1 63.55 19.8759 18.1106 1.69423 -0.559804 -0.208032 0.098984
224 1 63.55 18.1289 19.9487 1.68979 0.772893 -0.0346292 -0.140382
225 1 63.55 21.6602 18.0902 -0.0167611 0.607802 -0.66842 -1.01161
228 1 63.55 21.6742 19.9315 1.70982 0.759138 0.976821 1.05134
261 1 63.55 18.0253 21.6827 -0.0573591 -1.29731 -0.598186 0.218999
263 1 63.55 19.8782 21.7629 1.75404 -0.350061 -1.4205 1.52057
265 1 63.55 21.6768 21.7447 -0.0588318 0.792013 0.945378 -1.68482
226 1 63.55 23.5147 19.8818 -0.152191 -0.885488 0.219181 -0.410799
227 1 63.55 23.4867 18.0649 1.74729 -1.49763 -0.110092 0.357912
229 1 63.55 25.3508 18.0856 -0.07757 -1.37049 0.0570212 1.18389
232 1 63.55 25.3068 19.8629 1.73695 -0.168252 0.83154 -0.382059
267 1 63.55 23.4639 21.6734 1.78796 1.28364 -0.376834 0.832459
269 1 63.55 25.3096 21.7177 -0.0840824 0.359936 -0.425475 0.139675
230 1 63.55 27.0961 19.9402 -0.080465 0.351376 1.75834 -0.0942461
231 1 63.55 27.0918 18.1008 1.72959 -1.06187 1.31173 0.130495
233 1 63.55 28.8877 18.1126 -0.0449766 0.181016 -0.0576317 0.874041
236 1 63.55 28.925 19.9109 1.71933 1.16961 -0.340182 0.431079
271 1 63.55 27.1638 21.7057 1.72172 0.592758 0.804415 0.303624
273 1 63.55 28.9837 21.6926 -0.0926387 0.0884393 -1.83805 0.73843
234 1 63.55 30.778 19.8186 -0.0552126 0.308164 0.273231 0.0967048
235 1 63.55 30.7247 18.0651 1.71209 -1.3429 0.556839 -1.72951
275 1 63.55 30.7826 21.6938 1.70611 -0.0558955 0.459197 -0.0334907
237 1 63.55 32.5422 18.0629 -0.0710411 0.915945 -0.710715 1.45007
238 1 63.55 34.333 19.8831 -0.0803552 -0.350025 0.855199 0.545769
239 1 63.55 34.3342 18.1008 1.71191 0.382074 1.26065 0.064836
240 1 63.55 32.5546 19.9116 1.69605 1.50072 -0.768778 0.844538
277 1 63.55 32.504 21.7072 -0.0903112 1.11849 -0.487286 -0.113491
279 1 63.55 34.2941 21.7522 1.71604 0.299148 0.520156 -0.0850698
242 1 63.55 1.73803 23.5133 -0.0921293 0.553027 0.165182 1.23329
244 1 63.55 -0.0316813 23.5657 1.68189 -0.110119 -0.51336 -2.15391
248 1 63.55 3.61711 23.5043 1.71081 -0.018899 0.661453 1.71461
281 1 63.55 -0.10114 25.3025 -0.0792619 -0.49296 0.484015 1.92419
283 1 63.55 1.82153 25.3119 1.67425 -1.30493 -0.642578 -0.722161
285 1 63.55 3.55648 25.2934 -0.181751 -0.0362933 -1.34654 -0.777535
246 1 63.55 5.44272 23.5099 -0.104458 1.14002 0.289753 0.0729392
252 1 63.55 7.21036 23.5303 1.70398 -0.431059 -1.26226 0.552808
287 1 63.55 5.40152 25.3422 1.69482 0.163086 0.963976 0.084172
289 1 63.55 7.25997 25.2656 -0.119658 0.29901 0.628953 1.2403
250 1 63.55 9.06217 23.5155 -0.117088 1.02114 -1.14879 -0.200891
256 1 63.55 10.7979 23.5084 1.72341 -0.431533 1.01708 -0.554164
291 1 63.55 9.02423 25.3547 1.73598 -0.339738 -0.399876 -0.0413442
293 1 63.55 10.791 25.2886 -0.127885 -0.211193 -0.0255832 -0.822709
254 1 63.55 12.5829 23.5144 -0.0990107 -0.261903 0.636492 -0.474422
260 1 63.55 14.4772 23.4311 1.6811 0.0130164 0.534471 0.143631
295 1 63.55 12.5733 25.27 1.69237 1.6731 1.1923 0.839332
297 1 63.55 14.4806 25.3589 -0.062453 -0.110055 -0.438113 0.314962
258 1 63.55 16.3378 23.5548 -0.0649106 0.140336 0.604049 1.61845
299 1 63.55 16.2415 25.2965 1.77261 -0.687369 -0.238418 -0.946144
262 1 63.55 19.8537 23.5498 -0.096436 0.337213 -0.105144 -0.567347
264 1 63.55 18.0241 23.5464 1.76178 -1.15233 -1.28852 1.122
268 1 63.55 21.7534 23.5179 1.77652 -0.366577 -0.942351 -0.781762
301 1 63.55 18.0662 25.3421 -0.121026 -0.963738 -1.0796 0.367423
303 1 63.55 19.8471 25.3069 1.65176 1.24387 0.833949 -1.11167
305 1 63.55 21.7191 25.2778 -0.054576 -0.144983 0.387038 -0.245597
266 1 63.55 23.4865 23.4924 -0.0955151 0.0103321 1.03321 0.0393243
272 1 63.55 25.2993 23.5749 1.6703 0.50639 0.132417 0.691654
307 1 63.55 23.4717 25.311 1.76815 0.824951 -1.11092 -0.0162382
309 1 63.55 25.3195 25.3424 -0.116686 0.0170596 0.430476 -0.366633
270 1 63.55 27.1158 23.5151 -0.0975049 0.319323 -0.549364 -0.8437
276 1 63.55 28.9205 23.4917 1.70573 1.05489 -1.4494 0.296257
311 1 63.55 27.1299 25.3376 1.70876 0.0540051 -0.862674 0.941944
313 1 63.55 28.921 25.2991 -0.052163 -0.443228 -0.214294 1.39666
274 1 63.55 30.7272 23.5255 -0.111713 0.529352 -0.397227 -0.70505
315 1 63.55 30.7241 25.3252 1.70802 -1.14675 0.374639 0.48066
278 1 63.55 34.3013 23.5172 -0.106852 0.241769 -2.02529 -0.521681
280 1 63.55 32.4915 23.5104 1.72131 -0.242467 0.397854 -0.926695
317 1 63.55 32.5391 25.3031 -0.0820912 -0.83259 0.919029 -0.132574
319 1 63.55 34.266 25.2808 1.72134 -0.592845 0.253225 0.164552
282 1 63.55 1.78773 27.1059 -0.0786048 -0.999729 -0.289236 -0.0979
284 1 63.55 -0.0122771 27.0997 1.64814 1.11635 0.314562 -1.79142
288 1 63.55 3.63595 27.1117 1.69473 -0.515574 -0.201184 0.558508
321 1 63.55 -0.0194756 28.8948 -0.11318 -0.859595 1.70346 2.21016
323 1 63.55 1.77813 28.9063 1.6971 0.122396 -1.0659 1.53995
325 1 63.55 3.59416 28.9193 -0.121338 -0.0690164 -0.799769 -0.971448
286 1 63.55 5.40507 27.084 -0.145849 -0.703111 -0.466618 0.317907
292 1 63.55 7.21826 27.1334 1.73385 -0.0914801 -0.983757 1.50432
327 1 63.55 5.4235 28.9628 1.72184 -0.801728 1.24946 1.49167
329 1 63.55 7.20976 28.9373 -0.0946363 0.856767 -0.227911 1.24727
290 1 63.55 8.98108 27.1742 -0.0165336 0.908211 0.697253 1.35407
296 1 63.55 10.8553 27.1312 1.75045 -1.41718 1.60147 -0.0582325
331 1 63.55 9.04736 28.9484 1.69238 -0.645715 1.67611 0.348756
333 1 63.55 10.8089 28.9129 -0.144149 -0.496071 -0.34827 0.901165
294 1 63.55 12.6391 27.0767 -0.0261898 0.857949 0.269132 -0.546854
300 1 63.55 14.4305 27.095 1.75368 1.36319 1.30887 0.0386555
335 1 63.55 12.6632 28.9651 1.75187 -0.192545 0.87902 -0.41816
337 1 63.55 14.4432 28.8875 -0.101348 0.83675 0.291349 -0.778078
298 1 63.55 16.2162 27.1073 -0.0767027 0.424701 0.0753971 -0.791315
339 1 63.55 16.2134 28.8733 1.75184 -0.245619 -0.410931 -1.6262
302 1 63.55 19.8636 27.1237 -0.0525076 -0.455878 -0.260347 -0.214485
304 1 63.55 18.0138 27.1135 1.7293 0.168734 -0.212887 0.196727
308 1 63.55 21.6403 27.1032 1.73149 0.28789 0.385469 -0.915298
341 1 63.55 18.0291 28.895 -0.0221513 0.458877 0.430103 0.91758
343 1 63.55 19.925 28.9417 1.72141 1.8532 0.562571 -0.559571
345 1 63.55 21.6121 28.9567 -0.119946 0.203617 -0.294175 0.00350574
306 1 63.55 23.5058 27.1412 -0.0501972 -1.16316 0.518752 0.0271701
312 1 63.55 25.3347 27.1255 1.72484 0.512964 -0.0514043 -0.538403
347 1 63.55 23.434 28.9666 1.65597 -2.02341 0.0636317 -0.281038
349 1 63.55 25.3172 28.9338 -0.109485 -1.30973 1.0657 0.734356
310 1 63.55 27.1132 27.1816 -0.0891936 -0.586113 -0.927345 -0.87794
316 1 63.55 28.9681 27.1607 1.67679 -0.879029 0.620641 1.31486
351 1 63.55 27.0863 28.9079 1.75827 -1.03235 0.785436 -0.636843
353 1 63.55 28.9071 28.9516 -0.10734 -2.41948 -0.566813 1.08895
314 1 63.55 30.7075 27.1426 -0.121818 0.0976153 0.40114 -0.0357155
355 1 63.55 30.671 28.9529 1.6572 0.119175 0.489629 -0.453316
318 1 63.55 34.2967 27.1029 -0.0710414 0.693594 -0.633366 0.399175
320 1 63.55 32.44 27.1559 1.68853 -1.03241 -1.36133 -0.347684
357 1 63.55 32.4848 28.9262 -0.10817 -0.129377 0.995659 0.976334
359 1 63.55 34.3169 28.8723 1.71644 0.0767699 0.525213 -0.555623
322 1 63.55 1.78323 30.7449 -0.063394 -0.231652 1.28899 0.256579
324 1 63.55 -0.0767756 30.6969 1.7191 -0.595793 1.11621 1.13987
328 1 63.55 3.66309 30.7606 1.71086 0.897035 0.0393767 -0.210462
326 1 63.55 5.39372 30.7175 -0.0845979 -0.544382 1.21947 1.09065
332 1 63.55 7.25083 30.7459 1.68642 -0.34251 1.98399 0.564667
330 1 63.55 9.02356 30.807 -0.0582318 0.124429 -0.383842 -0.778608
336 1 63.55 10.811 30.774 1.66126 -0.459235 2.72418 0.394089
334 1 63.55 12.6264 30.7565 -0.0734436 -0.379755 0.846604 -0.111173
340 1 63.55 14.4047 30.6707 1.73057 0.588097 0.260495 -0.126236
338 1 63.55 16.2469 30.6722 -0.0705409 0.867364 -1.52372 -0.391858
342 1 63.55 19.7847 30.7408 -0.124821 1.47253 0.245562 1.48244
344 1 63.55 18.0563 30.7042 1.73167 -1.5105 -1.45428 -0.337431
348 1 63.55 21.6688 30.7868 1.71967 0.722741 -0.499902 0.186289
346 1 63.55 23.4836 30.7268 -0.0965306 1.22627 -0.547483 0.00856026
352 1 63.55 25.3108 30.7539 1.73355 1.1587 -1.30514 -0.0904539
350 1 63.55 27.0698 30.7781 -0.117989 0.0236719 -0.0381057 -0.675144
356 1 63.55 28.9028 30.7565 1.77312 -2.36429 1.26924 0.550828
354 1 63.55 30.7164 30.751 -0.119119 -0.442206 -1.2438 -1.65915
358 1 63.55 34.3357 30.7016 -0.117528 -0.251929 -0.373246 -0.102577
360 1 63.55 32.5433 30.679 1.67501 -0.647861 -0.531725 -0.336244
361 1 63.55 -0.0445068 32.5106 -0.0965239 0.675278 0.546491 -0.916782
362 1 63.55 1.79344 34.3709 -0.118546 0.0983977 0.0963234 -0.934165
363 1 63.55 1.74762 32.5277 1.67889 0.659091 0.0657657 0.582086
364 1 63.55 -0.0267077 34.2861 1.64353 0.426737 1.027 0.0667743
365 1 63.55 3.62973 32.5867 -0.0906607 0.920599 1.11403 -0.0886265
368 1 63.55 3.55564 34.3347 1.77984 -0.334797 0.330583 -0.10667
366 1 63.55 5.42848 34.3278 -0.0301542 0.35181 -0.0973176 -0.40676
367 1 63.55 5.41346 32.4799 1.79182 -1.02375 1.53541 0.639862
369 1 63.55 7.22238 32.5384 -0.130497 -0.448699 -1.03378 0.76921
372 1 63.55 7.18873 34.2955 1.74639 -0.0142854 -1.2543 0.0661255
370 1 63.55 9.07197 34.3096 -0.0833227 -0.442651 -0.182668 0.380932
371 1 63.55 9.03418 32.6048 1.69307 -0.943436 0.110495 -1.33427
373 1 63.55 10.807 32.5628 -0.0976954 0.874531 -0.4253 1.10829
376 1 63.55 10.8451 34.3845 1.68233 -0.470888 1.1631 0.488872
374 1 63.55 12.6809 34.2909 -0.0695806 0.696129 0.212505 0.572714
375 1 63.55 12.6301 32.4796 1.71895 0.0340972 1.00847 -1.90818
377 1 63.55 14.4354 32.4833 -0.104054 -0.367585 -0.13463 2.48592
380 1 63.55 14.4271 34.3381 1.70373 -1.24674 -0.100598 0.377353
378 1 63.55 16.2467 34.3678 -0.095394 0.361083 -0.445649 1.76534
379 1 63.55 16.1895 32.5384 1.74262 1.2741 -0.0384482 -0.217217
381 1 63.55 18.0337 32.5303 -0.0541311 0.144856 0.703708 -0.678632
382 1 63.55 19.8307 34.3815 -0.108719 0.666192 -0.732265 0.527096
383 1 63.55 19.8728 32.5573 1.71233 0.729383 0.0662981 1.05467
384 1 63.55 18.0298 34.3423 1.73857 -0.561685 -0.513653 0.303747
385 1 63.55 21.6409 32.5091 -0.083567 -0.125813 -0.0511993 -1.03249
388 1 63.55 21.6895 34.3818 1.76271 0.214243 -0.175376 0.141962
386 1 63.55 23.4671 34.3371 -0.0666931 -0.357507 -0.363503 -0.140817
387 1 63.55 23.4657 32.5645 1.68336 0.361936 -0.052919 0.913619
389 1 63.55 25.2609 32.5142 -0.0966597 -0.873275 -0.4017 0.239371
392 1 63.55 25.2905 34.2873 1.70807 0.340653 1.5339 1.9215
390 1 63.55 27.0924 34.3448 -0.101811 0.63242 0.121206 0.233275
391 1 63.55 27.1109 32.5808 1.65392 -0.584166 1.81728 -0.809213
393 1 63.55 28.8913 32.5296 -0.10374 -1.30105 0.341719 -1.51204
396 1 63.55 28.92 34.3188 1.71425 0.270772 1.76379 0.886797
394 1 63.55 30.6912 34.3199 -0.141175 -0.396572 -0.830432 -0.381471
395 1 63.55 30.7472 32.468 1.67167 2.07047 -0.275621 1.70811
397 1 63.55 32.55 32.5269 -0.166734 0.0327533 -0.125857 -0.0990805
398 1 63.55 34.3566 34.2715 -0.0944757 0.887868 -0.24294 -1.2603
399 1 63.55 34.3061 32.4776 1.7245 -1.21989 -1.17022 0.814001
400 1 63.55 32.5246 34.3379 1.68139 -0.768448 0.0891561 -1.36623
401 1 63.55 -0.0608702 -0.0904952 3.52226 0.277356 2.04908 -0.0751777
402 1 63.55 1.7424 1.79287 3.5479 0.384931 -0.577328 -0.277583
403 1 63.55 1.81783 -0.0893637 5.32553 -0.706831 -0.159033 0.545483
404 1 63.55 -0.00699912 1.74139 5.35805 0.956092 -0.956099 0.259674
405 1 63.55 3.56424 -0.0167451 3.49915 -0.457197 0.946649 0.196636
408 1 63.55 3.50477 1.77194 5.31479 -0.44124 -0.185275 -0.388508
441 1 63.55 -0.0986021 3.57388 3.55076 -0.47995 -0.204328 -1.30832
443 1 63.55 1.74739 3.59653 5.37591 0.224903 0.236283 -0.733767
445 1 63.55 3.60388 3.60065 3.49563 -0.157983 1.12901 -0.0686373
406 1 63.55 5.3751 1.81131 3.53709 -1.80053 0.555351 1.18048
407 1 63.55 5.32767 0.017365 5.33339 0.0315076 0.74649 1.12781
409 1 63.55 7.18113 -0.0529543 3.56643 -0.585105 -1.00509 -0.329829
412 1 63.55 7.23775 1.79224 5.30824 0.221013 0.945759 0.28822
447 1 63.55 5.33124 3.60405 5.37563 -0.353272 -0.72316 1.3632
449 1 63.55 7.21391 3.632 3.5441 -0.114642 0.214601 -1.55048
410 1 63.55 9.0332 1.78836 3.51415 0.1593 -0.125671 -1.52202
411 1 63.55 9.04979 -0.0534203 5.29888 0.37573 1.11146 0.900903
413 1 63.55 10.7982 -0.042143 3.49689 -0.629069 0.411727 -0.472659
416 1 63.55 10.8019 1.77737 5.31706 -0.0978255 0.0740519 -0.889718
451 1 63.55 9.00376 3.5258 5.26532 -0.0778753 0.117994 -0.553821
453 1 63.55 10.7783 3.61412 3.49011 0.0671786 0.0652874 0.0734189
414 1 63.55 12.5884 1.81158 3.51402 0.58153 -1.03418 -0.215756
415 1 63.55 12.5885 -0.0362403 5.26128 -0.361348 0.362007 0.463574
417 1 63.55 14.415 0.00610035 3.45872 -1.45849 -0.433445 -0.0396174
420 1 63.55 14.4188 1.81796 5.32087 -0.83621 -0.754185 -0.560338
455 1 63.55 12.6218 3.59174 5.38077 -0.0835652 0.235389 0.759734
457 1 63.55 14.437 3.5909 3.49679 -0.464145 1.98117 1.14198
418 1 63.55 16.2785 1.778 3.54663 -0.535561 0.548303 0.592826
419 1 63.55 16.2388 -0.000784251 5.33363 1.18144 0.0471603 1.21745
459 1 63.55 16.2759 3.58124 5.33418 0.603276 0.071022 -0.690802
421 1 63.55 18.0784 -0.0245188 3.51222 0.065205 -0.233609 1.17124
422 1 63.55 19.972 1.81957 3.52898 -1.37148 1.16803 -0.00286649
423 1 63.55 19.9285 -3.33125e-05 5.32676 -0.872202 -1.11253 -0.385054
424 1 63.55 18.081 1.76155 5.3298 -0.728954 -0.25002 -0.693876
425 1 63.55 21.7062 -0.0377738 3.52655 -1.24843 0.926044 0.110743
428 1 63.55 21.7155 1.7917 5.33347 1.44185 1.57966 0.424968
461 1 63.55 18.0913 3.49853 3.48254 -0.387838 -0.425928 -0.150667
463 1 63.55 19.8586 3.61018 5.35776 0.517012 1.26532 1.94714
465 1 63.55 21.6995 3.63354 3.54052 0.164766 -1.26694 0.628739
426 1 63.55 23.4949 1.78105 3.52896 0.0177789 -0.582232 0.418168
427 1 63.55 23.5113 0.00366901 5.38196 0.146508 -1.16204 0.454934
429 1 63.55 25.3065 -0.0691563 3.53321 -0.650164 -0.309484 -0.249366
432 1 63.55 25.319 1.78832 5.35808 0.248782 1.03879 1.77353
467 1 63.55 23.4727 3.56552 5.3095 1.50147 0.258596 0.909078
469 1 63.55 25.339 3.64596 3.52161 -0.407697 -1.08712 1.46183
430 1 63.55 27.1613 1.79368 3.48707 -0.56166 0.187761 0.132509
431 1 63.55 27.1445 -0.0318563 5.30533 0.85429 1.36136 -0.805313
433 1 63.55 28.9252 -0.0695359 3.53068 1.22506 -0.126405 -1.28441
436 1 63.55 28.9123 1.82941 5.2928 0.337059 0.76948 -0.120665
471 1 63.55 27.1529 3.63343 5.32231 1.35875 0.88318 0.565008
473 1 63.55 28.9085 3.61295 3.49429 -1.32108 0.71026 -0.891014
434 1 63.55 30.721 1.79411 3.4681 -1.20757 0.434673 0.83729