ITEM: TIMESTEP
1000
ITEM: NUMBER OF ATOMS
20000
ITEM: BOX BOUNDS pp pp pp
-1.2091585845055874e-02 3.6162091585845147e+01
-1.2169102236804008e-02 3.6162169102236774e+01
-7.0118560265356678e-02 1.8082011856026509e+02
ITEM: ATOMS id type mass x y z vx vy vz
1 1 63.55 -0.0244556 -0.031508 -0.0907417 -0.257126 1.32707 -0.664323
2 1 63.55 1.81764 1.73298 -0.103386 -0.564172 0.296041 0.474137
3 1 63.55 1.83682 -0.0306257 1.7073 -0.100829 -1.23458 0.198403
4 1 63.55 0.0414079 1.7709 1.73538 -0.318044 0.864407 0.0606424
5 1 63.55 3.64283 0.00209839 -0.102172 -0.233167 -0.601066 0.286089
8 1 63.55 3.6306 1.78612 1.72007 0.415674 1.40252 0.769781
41 1 63.55 0.0272829 3.58765 -0.131479 1.48297 -0.237339 -0.690364
43 1 63.55 1.79989 3.55545 1.69127 -0.625553 -0.0209034 0.138995
45 1 63.55 3.6214 3.59612 -0.0508209 -0.338048 0.76195 0.68236
6 1 63.55 5.41137 1.81872 -0.0780743 0.377346 -1.1765 -0.771293
7 1 63.55 5.42207 -0.00372127 1.7508 1.00472 -0.0360321 0.184113
9 1 63.55 7.20919 -0.0392555 -0.076492 0.498092 0.809396 -0.663826
12 1 63.55 7.2376 1.81857 1.73445 0.448446 0.419185 -2.27689
47 1 63.55 5.4445 3.60951 1.704 -0.181771 0.00392005 0.551414
49 1 63.55 7.2139 3.63671 -0.0509609 -0.312201 0.696314 0.711884
10 1 63.55 8.9781 1.7612 -0.113537 0.158334 0.740684 0.601367
11 1 63.55 9.01257 -0.0175305 1.69955 -0.588653 0.0283437 0.345637
13 1 63.55 10.8454 -0.0792233 -0.07188 -0.270083 -1.44099 -1.8634
16 1 63.55 10.8088 1.77375 1.71536 0.273061 1.26375 1.44764
51 1 63.55 9.03354 3.62169 1.72889 0.561227 -0.416829 -0.224514
53 1 63.55 10.8668 3.56323 -0.087862 -0.105768 -0.0224747 0.882419
14 1 63.55 12.6516 1.75874 -0.114475 -0.154735 0.783659 1.06525
15 1 63.55 12.6629 -0.0440513 1.77377 -0.0751041 1.38348 -0.14805
17 1 63.55 14.5009 -0.058378 -0.0249841 0.198082 -0.658991 -0.216785
20 1 63.55 14.4588 1.77077 1.77219 0.746861 1.08674 0.636314
55 1 63.55 12.6734 3.57064 1.72664 0.279242 -0.393205 0.347518
57 1 63.55 14.4853 3.58595 -0.00849213 0.662943 0.150279 -0.489554
18 1 63.55 16.2518 1.80963 0.00668058 -0.70415 -0.366408 0.120433
19 1 63.55 16.285 -0.0270947 1.78938 0.653697 0.443414 0.178043
59 1 63.55 16.2583 3.62447 1.82895 0.681363 -0.0828648 0.103006
21 1 63.55 18.0826 -0.021591 -0.040332 2.0267 0.618669 0.351714
22 1 63.55 19.8887 1.81315 -0.0645058 0.396821 -0.114191 -0.504392
23 1 63.55 19.9365 -0.00320269 1.71833 0.520527 -0.492144 -0.278178
24 1 63.55 18.0952 1.77322 1.75289 0.467161 0.624455 -0.867859
25 1 63.55 21.7413 0.0115633 -0.0974352 0.202402 -0.984229 1.90288
28 1 63.55 21.7317 1.82251 1.77723 0.406755 0.70823 0.867136
61 1 63.55 18.0657 3.59235 -0.0766881 0.050741 1.29107 0.249822
63 1 63.55 19.8889 3.63024 1.72623 1.10285 0.190137 1.14619
65 1 63.55 21.7281 3.61742 -0.0698155 -0.299777 0.712832 -0.751237
26 1 63.55 23.486 1.76889 -0.0981733 1.07994 -0.760398 0.0447311
27 1 63.55 23.5076 -0.0334034 1.76676 1.22721 -0.451022 -0.389554
29 1 63.55 25.2696 -0.0085769 -0.0866676 -1.01127 -1.36065 -0.966358
32 1 63.55 25.3053 1.76839 1.73389 0.427046 0.225947 0.41182
67 1 63.55 23.5088 3.63616 1.69937 -0.345831 -0.43428 -1.10597
69 1 63.55 25.2876 3.58594 -0.0693627 -1.28703 -0.478833 -1.0299
30 1 63.55 27.1647 1.78256 -0.0485236 -0.0357417 1.21947 0.523338
31 1 63.55 27.1325 -0.0403451 1.7219 -0.466021 -0.454224 -0.42074
33 1 63.55 28.961 -0.0201869 -0.0920894 0.757115 -0.796255 -0.377205
36 1 63.55 28.9352 1.82147 1.69494 0.82315 -0.0886212 -1.0467
71 1 63.55 27.11 3.60402 1.71864 -1.00157 0.414693 0.171622
73 1 63.55 28.9455 3.62777 -0.113672 0.535196 -0.0275273 0.517459
34 1 63.55 30.7804 1.85629 -0.0613907 -1.47367 0.180247 0.420147
35 1 63.55 30.7818 0.0173743 1.72455 0.459537 -0.695454 -0.222974
75 1 63.55 30.7674 3.64974 1.71584 -0.375383 -0.144333 -0.636082
37 1 63.55 32.5566 -0.0548084 -0.102526 1.22045 0.171716 0.943352
38 1 63.55 34.3709 1.82948 -0.0621132 -0.632436 0.579762 0.323355
39 1 63.55 34.3751 0.0606724 1.71134 -1.57119 -0.987065 1.05019
40 1 63.55 32.5775 1.78847 1.70513 -1.0659 -0.51026 -0.326049
77 1 63.55 32.5321 3.63585 -0.0632668 -0.385892 -0.146316 -0.695032
79 1 63.55 34.3463 3.57271 1.73978 0.545792 0.434439 -0.110088
42 1 63.55 1.80008 5.44457 -0.103568 0.300361 -0.39277 -0.325663
44 1 63.55 -0.00547231 5.39586 1.69785 0.304822 1.44286 -0.659393
48 1 63.55 3.62757 5.3952 1.7432 -1.92789 -0.395939 -0.521613
81 1 63.55 -0.00133868 7.22488 -0.0342653 0.190153 -1.47248 0.953668
83 1 63.55 1.83059 7.21739 1.72461 -0.81193 0.490972 0.707261
85 1 63.55 3.61871 7.21722 -0.0994711 1.54575 -0.514463 -1.08062
46 1 63.55 5.39286 5.44176 -0.0917955 0.450275 0.934361 0.20929
52 1 63.55 7.20262 5.40655 1.76287 -0.653597 -0.372343 -1.08725
87 1 63.55 5.39042 7.24508 1.71209 -0.20878 -0.24177 -0.0647778
89 1 63.55 7.20075 7.1664 -0.100396 -0.0171081 -1.1683 0.296472
50 1 63.55 9.05188 5.36944 -0.0929052 -0.819459 -0.787142 -0.511811
56 1 63.55 10.8952 5.39729 1.70061 -0.669144 -0.78273 0.773402
91 1 63.55 9.05394 7.1742 1.71597 -0.0224734 0.0714763 0.171812
93 1 63.55 10.8446 7.23482 -0.0666247 -0.329676 0.242322 -0.0513786
54 1 63.55 12.7224 5.38538 -0.00819278 1.76569 -0.499409 -0.0949222
60 1 63.55 14.4827 5.41683 1.77989 -1.66719 0.351411 0.674015
95 1 63.55 12.7038 7.24038 1.7738 1.20227 1.20778 0.683733
97 1 63.55 14.5051 7.28692 -0.010354 0.493572 1.1513 -0.0592403
58 1 63.55 16.2599 5.41803 -0.0548973 0.85203 -0.0528761 0.0975021
99 1 63.55 16.2868 7.24248 1.75191 0.371811 -0.16261 1.06885
62 1 63.55 19.8755 5.35617 -0.0600073 -0.233025 0.0192243 1.8259
64 1 63.55 18.0659 5.40587 1.73156 -0.0477812 -0.545195 -0.597894
68 1 63.55 21.6987 5.44926 1.71951 -0.0402613 1.28016 -0.654267
101 1 63.55 18.0818 7.20202 -0.0728222 -0.359931 -0.168267 0.0113569
103 1 63.55 19.8094 7.22473 1.7184 0.209096 -0.129324 -0.857648
105 1 63.55 21.6606 7.17352 -0.0751181 0.632678 0.141546 1.10897
66 1 63.55 23.437 5.43376 -0.0854745 -0.418404 -1.0351 0.113945
72 1 63.55 25.3033 5.43445 1.6973 0.051619 0.609073 0.827917
107 1 63.55 23.5267 7.22481 1.75354 0.653615 -0.527835 -0.235753
109 1 63.55 25.273 7.22647 -0.107813 -1.11359 -0.901016 0.264245
70 1 63.55 27.1345 5.38203 -0.0702429 -1.50734 0.01752 0.356959
76 1 63.55 28.9329 5.40698 1.70334 0.822152 -0.262339 0.100551
111 1 63.55 27.1046 7.1847 1.71341 0.227702 -0.0709742 0.447766
113 1 63.55 28.925 7.25612 -0.0689647 -0.179579 0.530651 0.572
74 1 63.55 30.7601 5.42703 -0.0978747 -0.430146 -0.423785 -2.15694
115 1 63.55 30.7665 7.20611 1.71182 -0.361181 -1.48868 1.59468
78 1 63.55 34.3696 5.39638 -0.0840681 0.028137 0.0232463 -0.871747
80 1 63.55 32.5891 5.41316 1.74474 -1.10565 1.42623 -0.230168
117 1 63.55 32.6038 7.22395 -0.0608581 -0.326385 0.270822 0.526873
119 1 63.55 34.3685 7.20944 1.74987 -0.743409 0.765853 0.328866
82 1 63.55 1.83098 9.02696 -0.0353496 1.40189 -0.328346 0.642428
84 1 63.55 0.017975 9.06024 1.78365 -0.198986 1.00334 -0.358098
88 1 63.55 3.57614 9.05431 1.73342 -0.778914 -0.861876 -0.280095
121 1 63.55 0.012812 10.8207 -0.0935649 -0.442917 0.730151 1.07261
123 1 63.55 1.78638 10.8787 1.72315 1.29852 -0.397715 1.03047
125 1 63.55 3.57612 10.8761 -0.0194315 -0.598322 0.142761 0.0244893
86 1 63.55 5.44719 8.98182 -0.0689095 -0.104524 -0.285077 0.830469
92 1 63.55 7.27788 9.01133 1.72716 -1.86477 0.453557 -0.266316
127 1 63.55 5.46392 10.8001 1.74206 0.254157 -0.699982 0.491814
129 1 63.55 7.2532 10.7675 -0.122947 0.61865 0.0132628 -0.630693
90 1 63.55 9.01094 9.00849 -0.113222 0.111322 -0.379785 -0.0771397
96 1 63.55 10.8001 9.00995 1.71793 1.20989 1.28714 -0.906329
131 1 63.55 9.04137 10.8077 1.71486 -0.114804 1.09757 -0.370889
133 1 63.55 10.7544 10.8191 -0.0798894 0.448548 -0.404799 -0.6277
94 1 63.55 12.6343 9.10356 -0.0686848 0.925438 0.128045 -0.194251
100 1 63.55 14.4662 9.04949 1.78613 0.85967 0.0755771 -0.747856
135 1 63.55 12.6116 10.8465 1.75875 0.00459471 -0.162806 0.329502
137 1 63.55 14.4395 10.8424 -0.000729605 1.45865 -0.160709 0.0344198
98 1 63.55 16.2794 9.09444 -0.0588905 -0.971377 -0.223344 -0.199304
139 1 63.55 16.263 10.9005 1.7473 -0.275276 0.176504 0.986072
102 1 63.55 19.8535 9.07528 -0.0907452 0.694039 -0.245058 0.454692
104 1 63.55 18.0902 9.05072 1.76939 -0.354175 0.103912 -0.702444
108 1 63.55 21.6598 9.03166 1.70797 -0.097532 -0.606916 -0.326339
141 1 63.55 18.0621 10.8984 -0.0116907 -0.304585 0.284201 0.154529
143 1 63.55 19.9065 10.8447 1.67027 0.664461 0.49275 0.0648029
145 1 63.55 21.7057 10.8099 -0.0856278 0.638557 0.272937 0.530155
106 1 63.55 23.4983 9.02409 -0.0768952 -0.373054 1.12398 -0.670574
112 1 63.55 25.2899 9.02689 1.72747 -1.46357 -0.585989 0.0456292
147 1 63.55 23.5364 10.8298 1.71148 0.528805 -0.659747 -0.159678
149 1 63.55 25.2953 10.8236 -0.142005 0.747654 -0.849695 0.251659
110 1 63.55 27.1233 9.03007 -0.0698967 0.387688 -0.782581 -0.882603
116 1 63.55 28.9337 9.03495 1.74844 0.208577 0.340559 0.995921
151 1 63.55 27.1064 10.8735 1.75014 0.266451 0.23988 -0.46344
153 1 63.55 28.9415 10.9149 -0.0140968 -0.257341 0.159685 -0.472068
114 1 63.55 30.7452 9.03114 -0.0534031 0.334775 -0.426875 -0.831058
155 1 63.55 30.7212 10.8459 1.73983 0.793634 -0.372687 -1.36847
118 1 63.55 34.3325 9.02042 -0.0730658 -0.379466 0.209347 0.457822
120 1 63.55 32.5757 9.082 1.74024 1.04235 -0.355045 0.73142
157 1 63.55 32.5909 10.7966 -0.0882937 -1.05128 0.0168271 0.586079
159 1 63.55 34.4057 10.8642 1.7302 0.935329 -0.133865 -0.867292
122 1 63.55 1.76615 12.7146 -0.0656958 0.918957 -0.855707 0.357707
124 1 63.55 -0.0323009 12.6836 1.73532 1.28533 1.29433 -0.62816
128 1 63.55 3.61625 12.6346 1.78126 -0.340428 0.905666 -0.985766
161 1 63.55 -0.0325005 14.4752 -0.088221 0.342633 -0.395691 0.429495
163 1 63.55 1.78704 14.4485 1.78734 -0.192629 -0.779068 1.07879
165 1 63.55 3.58946 14.4726 -0.0521836 0.309005 -0.00525122 -0.864722
126 1 63.55 5.41607 12.6438 -0.0685591 0.274904 -0.383727 0.613251
132 1 63.55 7.24308 12.6044 1.67139 -0.841073 0.0963488 -0.0271933
167 1 63.55 5.39402 14.4488 1.74463 -0.0538059 0.0655649 -0.193542
169 1 63.55 7.23123 14.4946 -0.0759908 -0.117143 -0.437377 0.173089
130 1 63.55 9.04574 12.6792 -0.069941 0.911766 1.28954 -0.758996
136 1 63.55 10.7811 12.646 1.77586 0.203196 -0.797551 0.126464
171 1 63.55 9.02963 14.4796 1.75749 0.789321 -0.423421 -0.431625
173 1 63.55 10.8062 14.4434 -0.0453957 -0.579667 0.166153 1.31218
134 1 63.55 12.6025 12.6092 -0.080461 -0.101727 -0.423749 -0.0689155
140 1 63.55 14.418 12.707 1.7342 0.125447 0.533815 -0.52808
175 1 63.55 12.6147 14.4841 1.74948 0.788934 0.485439 -0.481062
177 1 63.55 14.4501 14.4376 -0.071429 0.258848 -0.199175 0.691155
138 1 63.55 16.286 12.6711 -0.101221 -0.411994 0.0829424 -0.403725
179 1 63.55 16.2543 14.4679 1.72933 -1.53633 0.459333 0.312373
142 1 63.55 19.8883 12.6444 -0.121869 -0.919248 -0.110271 -0.633374
144 1 63.55 18.115 12.6863 1.71006 -1.14431 0.140103 0.271384
148 1 63.55 21.6788 12.5901 1.73541 -0.755349 -0.00119173 -0.521179
181 1 63.55 18.1068 14.4618 -0.13159 0.316776 0.48016 1.28758
183 1 63.55 19.8744 14.4541 1.69897 -0.554081 -0.80562 -0.207045
185 1 63.55 21.6954 14.4386 -0.0933063 0.0583286 -0.705297 1.03415
146 1 63.55 23.5011 12.6424 -0.0827162 0.866079 0.309461 0.912317
152 1 63.55 25.2794 12.6639 1.69302 -0.454498 -0.012205 0.289805
187 1 63.55 23.5026 14.4417 1.72846 0.988518 0.394094 0.884113
189 1 63.55 25.3017 14.4538 -0.0879954 -0.482743 -1.01217 0.471906
150 1 63.55 27.1054 12.6578 -0.0696405 0.260065 -0.377764 -1.10918
156 1 63.55 28.9199 12.6143 1.70679 0.258494 0.432387 -0.756956
191 1 63.55 27.1273 14.4524 1.72953 -0.549374 0.898192 -0.459633
193 1 63.55 28.8886 14.4777 -0.0895102 0.0615459 0.378124 -0.436657
154 1 63.55 30.7811 12.6874 -0.135105 1.00778 1.52543 0.847352
195 1 63.55 30.7262 14.3959 1.68999 -0.218958 -0.530934 0.0995842
158 1 63.55 34.3292 12.593 -0.0889448 0.566176 0.387773 0.205666
160 1 63.55 32.552 12.646 1.73587 0.125876 0.577501 -1.38525
197 1 63.55 32.5565 14.4223 -0.0889823 0.47434 0.242224 0.536846
199 1 63.55 34.3288 14.4544 1.76987 0.0308732 -1.95174 0.914043
162 1 63.55 1.80699 16.285 -0.0444988 0.342769 -0.516147 1.26634
164 1 63.55 -0.0110624 16.3025 1.7854 -0.502876 1.05296 -0.133467
168 1 63.55 3.56391 16.2568 1.74321 -1.16683 -0.0665025 0.925257
166 1 63.55 5.42351 16.2505 -0.0489878 -1.18614 0.659171 -0.0601987
172 1 63.55 7.19194 16.2781 1.74665 0.236665 1.46123 -0.438644
170 1 63.55 9.00039 16.2678 -0.0670387 0.273963 -0.371864 0.69766
176 1 63.55 10.8462 16.2995 1.73276 -0.0978064 0.170259 -0.185253
174 1 63.55 12.5921 16.2665 -0.101133 -0.933407 0.812818 0.920286
180 1 63.55 14.4336 16.2548 1.77172 0.0945262 -0.188548 0.839614
178 1 63.55 16.2323 16.2349 -0.108671 -0.00189429 -0.925092 0.492054
182 1 63.55 19.9237 16.3156 -0.145307 -0.296468 -0.834916 0.356343
184 1 63.55 18.0973 16.2787 1.73409 -0.067983 -0.57354 -0.196994
188 1 63.55 21.7293 16.2585 1.68086 0.841711 -0.519231 -1.24911
186 1 63.55 23.495 16.2618 -0.09105 0.44594 0.221702 0.297438
192 1 63.55 25.3478 16.2523 1.71945 1.20021 -0.0807649 -0.91481
190 1 63.55 27.1195 16.2731 -0.09991 -0.228614 -0.833847 -0.156954
196 1 63.55 28.9699 16.2704 1.74877 0.965921 0.588575 -0.491718
194 1 63.55 30.7277 16.2451 -0.0555911 -0.462082 -1.47802 0.801275
198 1 63.55 34.3629 16.2491 -0.0350854 0.214485 0.0182836 0.88073
200 1 63.55 32.5098 16.2139 1.77359 -0.365849 -0.232224 0.164549
201 1 63.55 0.0301121 18.0441 -0.0391459 -0.519901 -0.0623719 -0.716282
202 1 63.55 1.79825 19.8672 -0.0844007 -0.206637 -0.105066 0.490906
203 1 63.55 1.81458 18.0957 1.76536 0.952014 -0.543571 -0.17045
204 1 63.55 0.00345277 19.8342 1.78922 0.0558132 1.12555 -0.0662279
205 1 63.55 3.62755 18.0689 -0.0238986 -0.474176 0.0199307 -0.0658829
208 1 63.55 3.6182 19.9001 1.72129 -0.443783 -0.303721 0.637795
241 1 63.55 -0.0358885 21.7149 -0.040379 0.676572 0.989985 -0.087678
243 1 63.55 1.81751 21.6983 1.74925 -0.19015 -1.1173 -0.749295
245 1 63.55 3.60133 21.7246 -0.122246 0.339217 0.185434 -0.01604
206 1 63.55 5.42911 19.899 -0.0992443 0.496082 1.15992 0.139174
207 1 63.55 5.41513 18.0759 1.7609 0.843439 -1.12997 1.71008
209 1 63.55 7.20866 18.0874 -0.0699867 0.903828 0.937997 -0.381067
212 1 63.55 7.23166 19.8935 1.70937 0.690452 -0.883404 -1.39145
247 1 63.55 5.41983 21.7038 1.71372 -1.47925 0.238375 1.52441
249 1 63.55 7.229 21.7336 -0.0686035 0.640395 0.955772 -0.558773
210 1 63.55 9.02228 19.9248 -0.0610696 -0.340303 0.0261258 0.403897
211 1 63.55 9.017 18.0892 1.73914 -0.823097 -0.081036 -0.059656
213 1 63.55 10.8014 18.1058 -0.0941212 -0.598102 1.18247 -1.96643
216 1 63.55 10.8818 19.8786 1.7106 -1.129 -0.714337 0.381283
251 1 63.55 9.03405 21.7521 1.73894 0.898143 0.429766 -0.0562551
253 1 63.55 10.8396 21.679 -0.0751832 0.131598 1.80554 0.907687
214 1 63.55 12.6679 19.8844 -0.0687093 1.50122 0.067028 0.538004
215 1 63.55 12.608 18.0607 1.76506 -1.31763 -1.04097 -1.69315
217 1 63.55 14.4499 18.0298 -0.0716884 0.212393 -0.840931 -0.853374
220 1 63.55 14.4757 19.8873 1.71489 -0.776295 1.16348 0.635755
255 1 63.55 12.7095 21.6991 1.73004 -0.955536 1.10038 -0.103092
257 1 63.55 14.5078 21.7542 -0.0477814 -0.133771 1.31923 -1.42976
218 1 63.55 16.2646 19.8555 -0.0558179 -0.286036 1.2707 -0.573359
219 1 63.55 16.2627 18.057 1.71837 0.908227 0.371457 -0.0182171
259 1 63.55 16.2672 21.6564 1.7628 -0.335213 1.03119 -0.266507
221 1 63.55 18.0728 18.0652 -0.0783543 0.572804 1.09709 -0.377922
222 1 63.55 19.8948 19.895 -0.0778158 -1.22778 0.427929 -0.332783
223 1 63.55 19.8699 18.0296 1.70454 0.0275353 -1.43999 0.55728
224 1 63.55 18.1258 19.8957 1.69946 0.9612 -0.336343 -0.107829
225 1 63.55 21.7272 18.1179 -0.0454579 -0.823032 -0.798891 -0.260426
228 1 63.55 21.7232 19.9431 1.76543 0.450646 -0.224346 0.34929
261 1 63.55 18.128 21.7001 -0.0527108 -0.804958 0.223847 1.32461
263 1 63.55 19.9409 21.7342 1.73597 -0.0725246 0.532503 0.336648
265 1 63.55 21.7092 21.6986 -0.100884 -0.34123 0.259977 -1.36565
226 1 63.55 23.5173 19.9174 -0.029329 -0.624649 -0.703137 -0.271563
227 1 63.55 23.4694 18.0618 1.71446 -0.320594 -0.081378 -0.992657
229 1 63.55 25.3384 18.0902 -0.0610751 0.856344 -0.722736 0.156719
232 1 63.55 25.3235 19.9182 1.6892 -0.665467 0.529697 0.19637
267 1 63.55 23.5016 21.7769 1.72589 0.933387 1.6368 0.754652
269 1 63.55 25.318 21.7691 -0.0729157 -1.11834 0.417581 -0.322891
230 1 63.55 27.1145 19.8862 -0.0593041 -0.0884366 -0.283804 0.385595
231 1 63.55 27.1382 18.086 1.6998 -1.71765 0.390643 0.027462
233 1 63.55 28.9186 18.0436 -0.119335 0.312564 -1.10273 -0.727405
236 1 63.55 28.8984 19.9037 1.73828 0.684464 -0.421636 0.768995
271 1 63.55 27.118 21.7222 1.76298 -0.483528 -0.997974 0.907887
273 1 63.55 28.8814 21.7594 -0.0801159 -0.948607 -2.27931 -1.325
234 1 63.55 30.7514 19.8954 -0.045188 -1.08478 -0.5213 -1.60409
235 1 63.55 30.6648 18.0982 1.74929 -0.674857 -0.40012 1.85439
275 1 63.55 30.6929 21.676 1.68776 1.2875 -0.141878 0.630718
237 1 63.55 32.5754 18.0008 -0.0229175 -0.320865 -1.1745 -0.227054
238 1 63.55 34.3907 19.8687 -0.0141233 -0.444962 0.167188 0.905482
239 1 63.55 34.3378 18.0698 1.69342 0.0228161 0.0414543 -1.58683
240 1 63.55 32.53 19.8164 1.73806 1.58559 -1.05847 -1.00733
277 1 63.55 32.5619 21.6579 -0.0336997 -1.21025 -0.279639 0.0123392
279 1 63.55 34.3622 21.6937 1.75267 0.135786 -0.00292005 -0.0139433
242 1 63.55 1.79975 23.5224 -0.0654143 0.108033 -0.174347 -1.06536
244 1 63.55 0.0500108 23.4894 1.76094 0.155824 1.2894 -0.581341
248 1 63.55 3.61715 23.5281 1.71814 -0.623127 -0.518997 -0.268379
281 1 63.55 -0.0401965 25.2437 -0.12949 0.481338 0.430551 0.923957
283 1 63.55 1.80662 25.3071 1.74533 -0.133959 0.342731 0.737053
285 1 63.55 3.61682 25.3256 -0.0987169 1.38051 0.537298 2.24771
246 1 63.55 5.4563 23.5037 -0.104189 -0.583498 0.799183 -0.304873
252 1 63.55 7.26471 23.5756 1.70526 -0.874479 -0.685576 0.597935
287 1 63.55 5.43025 25.2977 1.75576 -0.529344 0.0857537 -1.20866
289 1 63.55 7.26277 25.2971 -0.096601 -0.595015 -1.31032 -0.958587
250 1 63.55 9.07603 23.5327 -0.121983 0.151844 0.155234 0.662553
256 1 63.55 10.8735 23.4776 1.72288 0.769767 0.748008 1.33853
291 1 63.55 9.04191 25.2991 1.70963 0.115842 0.0862288 0.147716
293 1 63.55 10.8546 25.3035 -0.0883082 -0.850369 0.170682 -0.246071
254 1 63.55 12.66 23.4771 -0.0922401 0.639786 0.158232 -0.0845436
260 1 63.55 14.4818 23.4899 1.74411 0.404936 0.474483 0.0501592
295 1 63.55 12.6666 25.2725 1.76198 0.637727 0.0606792 0.248184
297 1 63.55 14.4541 25.3138 -0.0047226 0.234705 0.169913 -1.60755
258 1 63.55 16.3617 23.5364 -0.0941836 0.484104 0.335872 -1.0451
299 1 63.55 16.2597 25.3174 1.74984 0.244879 0.0292151 0.21411
262 1 63.55 19.8994 23.5138 -0.101931 -1.02399 -0.972682 -0.264699
264 1 63.55 18.1338 23.5074 1.7129 0.627049 -1.27613 -0.499708
268 1 63.55 21.7126 23.5167 1.73411 -0.366139 0.142597 0.150595
301 1 63.55 18.1148 25.4118 -0.049815 0.187634 -1.17931 -0.384637
303 1 63.55 19.8758 25.34 1.77644 -1.08529 0.581738 -1.25127
305 1 63.55 21.6905 25.3886 -0.103142 0.318303 -0.281142 -0.411859
266 1 63.55 23.5071 23.5327 -0.0665082 0.428578 -0.42933 0.124625
272 1 63.55 25.2987 23.5543 1.76783 -0.276274 -0.560222 0.411214
307 1 63.55 23.4666 25.344 1.77086 1.76321 0.994737 -1.34166
309 1 63.55 25.3197 25.3533 -0.0597936 1.45885 0.38764 -0.762348
270 1 63.55 27.0816 23.5668 -0.0118649 1.01715 0.171254 -0.253961
276 1 63.55 28.9245 23.5258 1.72919 0.666096 -0.0245817 0.154766
311 1 63.55 27.1429 25.3604 1.78823 -0.362496 0.0759964 -0.660169
313 1 63.55 28.9496 25.3306 -0.0526549 -0.146722 -1.23648 0.128831
274 1 63.55 30.693 23.5065 -0.0660934 1.53885 0.807855 -0.330456
315 1 63.55 30.7969 25.3362 1.75025 -1.44811 -0.159205 -0.103769
278 1 63.55 34.3678 23.4722 -0.093648 0.888648 -0.179639 0.620217
280 1 63.55 32.5534 23.4968 1.71987 0.340905 -0.268589 0.0703325
317 1 63.55 32.5749 25.2788 -0.0833427 -0.117513 0.32816 0.620726
319 1 63.55 34.3827 25.2512 1.75024 -0.106897 -0.257746 -0.0234457
282 1 63.55 1.7779 27.139 -0.0702108 0.692167 0.508282 0.909777
284 1 63.55 -0.034205 27.0764 1.77068 0.288975 -0.319526 0.523888
288 1 63.55 3.63531 27.1206 1.71379 0.124917 -0.576539 -0.640851
321 1 63.55 0.0226055 28.8896 -0.0491658 1.22845 -1.63455 0.191254
323 1 63.55 1.76859 28.8773 1.7779 -0.37694 -0.741781 1.30444
325 1 63.55 3.63599 28.9012 -0.112587 0.349612 -0.337117 0.535896
286 1 63.55 5.46054 27.1053 -0.0936755 -0.216465 -0.292317 -0.277316
292 1 63.55 7.20907 27.1009 1.70924 -1.6485 0.520271 -1.59072
327 1 63.55 5.44903 28.9377 1.73286 0.846425 -1.24177 -0.771031
329 1 63.55 7.22383 28.8959 -0.0735792 -0.115194 0.237938 -1.23567
290 1 63.55 9.02912 27.0849 -0.0438485 -0.282447 -0.0686364 -0.340623
296 1 63.55 10.8805 27.0847 1.74585 0.152938 -0.724439 -0.0150129
331 1 63.55 9.04884 28.8864 1.74776 0.160058 -0.316974 0.544434
333 1 63.55 10.852 28.8801 -0.0719929 -0.534907 -1.62039 0.790734
294 1 63.55 12.6803 27.1003 -0.0744612 -0.176083 -0.394785 0.408427
300 1 63.55 14.5004 27.118 1.7536 0.833247 -0.995362 -0.487371
335 1 63.55 12.6761 28.9179 1.78066 0.0947282 0.462938 0.723741
337 1 63.55 14.4398 28.9179 -0.0216078 -1.0212 -0.751622 0.135113
298 1 63.55 16.237 27.124 -0.123781 -0.0605483 0.0408452 -0.410292
339 1 63.55 16.2456 28.9467 1.72802 -1.3188 0.1228 -1.0956
302 1 63.55 19.8762 27.1743 -0.0186028 -0.824677 1.27432 -0.0139818
304 1 63.55 18.0387 27.1514 1.76682 1.02103 -0.224611 1.0976
308 1 63.55 21.6503 27.1462 1.73869 -0.166391 -0.135887 0.733695
341 1 63.55 18.0254 28.8952 -0.0363796 0.199037 -0.75351 -0.143813
343 1 63.55 19.8842 28.9347 1.80558 -0.641504 0.0544812 0.167465
345 1 63.55 21.7144 28.926 -0.0599051 0.322723 -0.764802 -0.567546
306 1 63.55 23.5222 27.0799 -0.105509 -0.69868 0.890562 -2.15871
312 1 63.55 25.3728 27.1051 1.74919 0.846131 -0.599863 0.6984
347 1 63.55 23.503 28.8797 1.70296 -0.937477 -0.918826 -0.387646
349 1 63.55 25.3487 28.9332 -0.0957477 0.316876 0.770455 -1.61923
310 1 63.55 27.1001 27.133 -0.102394 -0.58278 -0.376548 -1.33132
316 1 63.55 28.9656 27.1008 1.7643 0.679222 -0.973804 0.0890144
351 1 63.55 27.1703 28.9001 1.71539 0.0945049 0.92483 -0.821688
353 1 63.55 28.9939 28.8893 -0.0649053 -1.37971 -0.0951104 0.336406
314 1 63.55 30.815 27.0957 -0.0602734 0.00635447 -0.0825193 0.270446
355 1 63.55 30.7857 28.914 1.71051 -0.218023 0.637292 -0.586104
318 1 63.55 34.3744 27.0626 -0.0655564 0.0723545 0.707791 -0.725829
320 1 63.55 32.5989 27.1217 1.77108 -0.329779 0.577457 -0.0348101
357 1 63.55 32.5883 28.9526 -0.122806 0.904068 -0.455475 0.799847
359 1 63.55 34.3829 28.8817 1.74246 0.586094 0.680667 1.38817
322 1 63.55 1.78246 30.6808 -0.0105195 1.36089 -1.63098 0.358756
324 1 63.55 -0.00619024 30.7541 1.79271 0.108564 1.15199 -0.190336
328 1 63.55 3.58455 30.7154 1.76055 -0.901522 0.643387 0.599619
326 1 63.55 5.41213 30.7534 -0.00828669 -0.887985 -0.211064 1.42055
332 1 63.55 7.26963 30.7061 1.75389 0.310115 1.41 -0.0646999
330 1 63.55 9.02664 30.7512 -0.0697603 0.481932 0.371228 -1.64058
336 1 63.55 10.8205 30.7105 1.74363 -0.628278 0.0406381 -1.48612
334 1 63.55 12.6624 30.7574 -0.0389984 0.615791 -0.846951 0.314485
340 1 63.55 14.4645 30.7304 1.74852 1.09895 -0.626802 1.62694
338 1 63.55 16.2463 30.7428 -0.0955246 -0.129009 -0.200439 -0.591863
342 1 63.55 19.8715 30.6776 -0.0689846 -0.0151395 -0.259156 0.571799
344 1 63.55 18.0761 30.7095 1.70863 0.245314 0.257715 1.23848
348 1 63.55 21.7041 30.7407 1.73694 0.782624 0.926108 0.364167
346 1 63.55 23.4995 30.7129 -0.0430868 0.399469 -0.302769 -1.24806
352 1 63.55 25.3359 30.7216 1.74001 1.00127 0.410221 -0.655591
350 1 63.55 27.1219 30.6961 -0.0741781 -0.376069 0.508304 -0.215888
356 1 63.55 28.9414 30.7024 1.72324 0.346171 -1.78437 0.799713
354 1 63.55 30.75 30.7069 -0.0853334 -0.728804 -0.279394 -0.607408
358 1 63.55 34.3837 30.727 -0.0837517 0.19544 0.692782 0.0445878
360 1 63.55 32.5716 30.7168 1.71825 0.394237 0.377264 -0.147709
361 1 63.55 -0.00213047 32.5538 -0.0693934 -0.602513 1.16943 -0.255794
362 1 63.55 1.82555 34.376 -0.108396 0.815869 0.636611 -0.114003
363 1 63.55 1.83304 32.5307 1.76505 -0.741808 -1.47177 0.551482
364 1 63.55 -0.0110434 34.3917 1.7514 0.0556425 0.331173 -0.0151886
365 1 63.55 3.62502 32.532 -0.0469019 -0.640148 0.305407 0.340211
368 1 63.55 3.64688 34.3746 1.74451 -0.689931 -0.307103 -0.444169
366 1 63.55 5.44193 34.3373 -0.0678408 0.718092 -0.742822 -1.49998
367 1 63.55 5.40736 32.5482 1.74015 -0.6024 -0.274259 -0.897334
369 1 63.55 7.19258 32.4798 -0.0810051 1.08235 0.641692 1.03988
372 1 63.55 7.19512 34.3097 1.74278 -0.436683 0.845947 -1.07199
370 1 63.55 9.04992 34.3033 -0.0495304 -0.064853 0.494326 0.668278
371 1 63.55 9.01267 32.5313 1.80121 -0.603404 0.123188 0.199275
373 1 63.55 10.859 32.5626 -0.0061978 0.0766253 -0.3125 0.947267
376 1 63.55 10.8407 34.3173 1.78773 0.611425 -0.582638 0.269517
374 1 63.55 12.6627 34.3384 -0.0544206 -0.0672102 -0.459468 -0.208795
375 1 63.55 12.6711 32.5497 1.73531 0.439095 -0.74091 0.159149
377 1 63.55 14.4547 32.5611 -0.0534906 0.146133 -0.501533 -1.14658
380 1 63.55 14.4725 34.3821 1.76919 -0.305773 -0.521292 -0.21147
378 1 63.55 16.2846 34.3232 -0.0143879 0.184488 -0.146157 -0.147518
379 1 63.55 16.2616 32.513 1.76672 -0.151064 0.149918 1.45471
381 1 63.55 18.1099 32.5356 -0.122257 -0.896784 -0.114186 -0.492702
382 1 63.55 19.8736 34.3522 -0.0459238 -0.239839 0.156821 0.225994
383 1 63.55 19.9133 32.5135 1.75797 0.00521218 -0.503 -0.121356
384 1 63.55 18.1218 34.3047 1.73853 0.488479 -0.192569 -0.50622
385 1 63.55 21.6771 32.5206 -0.114285 -1.49145 -1.00806 -0.670703
388 1 63.55 21.7051 34.3654 1.69781 -0.182114 -0.464536 -0.699831
386 1 63.55 23.5171 34.3262 -0.096983 -0.250745 1.39851 -0.228049
387 1 63.55 23.5223 32.5046 1.7071 0.206189 0.162808 0.783645
389 1 63.55 25.335 32.5209 -0.0988121 0.0897817 0.352653 0.558043
392 1 63.55 25.3429 34.3436 1.70911 1.40931 0.0380824 -1.08271
390 1 63.55 27.1525 34.3397 -0.118216 0.176584 0.0709426 0.99296
391 1 63.55 27.1838 32.5123 1.68046 0.0889909 -0.430943 0.290099
393 1 63.55 28.9642 32.5359 -0.096413 -0.187753 -0.703059 0.0243905
396 1 63.55 28.9809 34.3416 1.73206 -0.316427 -0.598477 -1.27054
394 1 63.55 30.7829 34.3344 -0.116163 -0.500375 -0.555982 0.228174
395 1 63.55 30.7352 32.5076 1.65675 0.285204 -0.00301979 1.2933
397 1 63.55 32.5556 32.52 -0.110972 -0.793011 -0.552484 -0.502742
398 1 63.55 34.3539 34.365 -0.0595533 -1.11063 -0.0589516 0.77924
399 1 63.55 34.3382 32.5679 1.73906 -0.487599 -0.31963 -1.74807
400 1 63.55 32.5705 34.348 1.74869 -0.939811 -0.0405766 1.00942
401 1 63.55 -0.0548293 -0.0177865 3.6233 0.684761 0.244824 -0.504756
402 1 63.55 1.74762 1.77521 3.56995 -0.184428 -1.15183 -1.18263
403 1 63.55 1.77523 -0.000367637 5.36542 0.0632255 0.229644 0.53428
404 1 63.55 -0.0412532 1.77454 5.34473 -1.22961 -0.4213 0.902713
405 1 63.55 3.59761 0.00184766 3.55458 1.36562 -0.0964387 -0.706598
408 1 63.55 3.61915 1.77709 5.35849 1.69388 -0.158994 -0.372418
441 1 63.55 0.00634803 3.65674 3.56329 0.205256 0.0266637 -0.766421
443 1 63.55 1.80624 3.61063 5.34396 0.658653 0.84536 1.01152
445 1 63.55 3.60319 3.54699 3.51616 0.237227 0.0237439 0.659801
406 1 63.55 5.4165 1.78654 3.53821 -0.798938 0.331066 -1.89987
407 1 63.55 5.39331 0.0229019 5.327 -0.473923 0.1151 -0.445582
409 1 63.55 7.18503 -0.0193155 3.53378 0.250152 -0.260988 0.707316
412 1 63.55 7.20267 1.78747 5.26397 0.438023 -0.31326 0.404173
447 1 63.55 5.40671 3.56347 5.35039 -0.24801 -0.603248 0.412363
449 1 63.55 7.24558 3.61613 3.52239 0.526884 0.875489 0.0201347
410 1 63.55 9.02847 1.81003 3.52977 -0.87211 -0.0607844 0.316961
411 1 63.55 9.01251 -0.0150784 5.38069 0.456144 0.06027 0.76303
413 1 63.55 10.8826 -0.0394399 3.54657 0.607458 0.0210797 0.229573
416 1 63.55 10.8269 1.79672 5.31858 0.709047 -0.456161 -0.913892
451 1 63.55 9.03601 3.61797 5.32961 0.641329 -0.496467 0.607603
453 1 63.55 10.8687 3.59096 3.52734 1.074 0.633801 1.16316
414 1 63.55 12.6174 1.76082 3.54819 -0.136525 0.709371 1.01339
415 1 63.55 12.6295 -0.0404022 5.36498 -0.540101 -0.600978 -0.0966706
417 1 63.55 14.4618 -0.0787276 3.58642 -0.545202 -0.361413 -1.74076
420 1 63.55 14.4604 1.83591 5.31899 -1.02976 -0.615941 -0.0308276
455 1 63.55 12.6653 3.59441 5.3098 0.855352 -0.0829019 0.593346
457 1 63.55 14.4412 3.58011 3.55227 -1.29787 -0.915565 0.93428
418 1 63.55 16.2795 1.75769 3.53098 0.0726259 -0.860159 0.111167
419 1 63.55 16.2956 0.045995 5.32495 -0.0508059 -1.09388 -0.808258
459 1 63.55 16.3233 3.63059 5.29828 -1.54218 0.0617714 0.0849227
421 1 63.55 18.1459 -0.033724 3.5139 0.758027 0.104398 0.239432
422 1 63.55 19.9234 1.7896 3.56147 0.113195 0.239707 -0.797269
423 1 63.55 19.8889 0.0165284 5.34993 -1.07363 -0.914476 -0.110203
424 1 63.55 18.0617 1.82365 5.34529 -1.48834 -0.150807 -0.393336
425 1 63.55 21.7084 -0.0400382 3.53754 0.138086 0.297495 -0.124244
428 1 63.55 21.7461 1.7906 5.31711 -0.469264 -0.48773 0.0026508
461 1 63.55 18.1363 3.60362 3.54901 0.426356 0.196624 0.472819
463 1 63.55 19.9573 3.57925 5.3801 -0.0645398 0.941746 -0.261093
465 1 63.55 21.6646 3.65416 3.53485 -0.496818 -0.961721 0.223642
426 1 63.55 23.4917 1.79022 3.50034 0.00902938 -1.80276 -1.36334
427 1 63.55 23.5013 -0.0409735 5.32976 0.548631 0.481513 0.754898
429 1 63.55 25.3403 -0.0350759 3.52857 0.826923 -0.855607 0.0186675
432 1 63.55 25.2919 1.794 5.32803 -0.464961 0.410767 -0.0869594
467 1 63.55 23.4855 3.62631 5.355 0.453589 0.991075 0.401291
469 1 63.55 25.301 3.64239 3.49401 0.389366 0.174641 0.102723
430 1 63.55 27.1328 1.79321 3.52712 0.399241 0.35946 1.06688
431 1 63.55 27.1196 -0.0163311 5.28214 1.03551 0.523528 0.0852479
433 1 63.55 28.9358 0.0116487 3.53767 -0.89494 0.490398 0.634892
436 1 63.55 28.9435 1.82982 5.35361 -0.765471 0.155593 -0.567823
471 1 63.55 27.1609 3.60485 5.34553 1.35052 0.488156 1.08238