ITEM: TIMESTEP
4000
ITEM: NUMBER OF ATOMS
20000
ITEM: BOX BOUNDS pp pp pp
-1.7017885630025376e-02 3.6167017885630074e+01
-1.8208685423008575e-02 3.6168208685422925e+01
-2.9335057475762483e-02 1.8077933505747683e+02
ITEM: ATOMS id type mass x y z vx vy vz
1 1 63.55 -0.00163926 -0.00465876 -0.0645668 -0.518231 -0.710876 0.0400891
2 1 63.55 1.79601 1.8338 -0.0921222 -1.12398 -0.417298 -0.213456
3 1 63.55 1.7277 -0.00823231 1.82569 0.042183 -0.387289 0.670068
4 1 63.55 -0.0279389 1.85248 1.74975 -0.199592 -1.95738 -0.706768
5 1 63.55 3.51221 0.012062 0.0118603 1.90465 -0.296801 -0.611082
8 1 63.55 3.6122 1.79565 1.82792 -0.491236 1.1656 -0.875638
41 1 63.55 -0.0182556 3.60611 -0.0747283 -1.38669 -1.07365 0.433853
43 1 63.55 1.8142 3.61198 1.75802 -1.0729 0.0664153 0.575613
45 1 63.55 3.58161 3.54603 -0.0114315 0.734353 -0.0328465 -1.67842
6 1 63.55 5.36148 1.81848 -0.0182 -0.795303 -0.105098 -1.07057
7 1 63.55 5.38542 0.00967839 1.78319 -0.904765 -0.45461 0.671699
9 1 63.55 7.20828 -0.0258677 -0.0134203 -1.3742 0.843389 -0.823349
12 1 63.55 7.29538 1.78368 1.76083 0.43551 -0.804389 -0.110635
47 1 63.55 5.44881 3.63338 1.78862 -1.30095 1.02716 -1.47889
49 1 63.55 7.19633 3.54034 0.000249514 1.32317 0.270339 -0.895308
10 1 63.55 9.08829 1.82523 -0.0368819 -0.145094 -1.14994 1.5023
11 1 63.55 9.06525 -0.0174226 1.72176 1.23114 -0.540009 -0.561602
13 1 63.55 10.893 -0.085546 -0.12263 -1.30689 -1.07056 1.64001
16 1 63.55 10.8966 1.74857 1.77636 -0.865827 -0.278701 -0.965318
51 1 63.55 9.06474 3.57905 1.76292 -0.201319 -0.71905 -0.41374
53 1 63.55 10.8692 3.5883 -0.0871091 0.901376 -1.49104 0.465483
14 1 63.55 12.6247 1.77897 0.0159741 0.524467 0.0412841 -1.12411
15 1 63.55 12.6819 -0.0422925 1.77184 -1.20724 -0.53661 -0.542752
17 1 63.55 14.4703 -0.0550052 -0.0226322 -0.2766 1.32611 -0.746298
20 1 63.55 14.4895 1.78536 1.77195 0.210389 0.682831 -0.35601
55 1 63.55 12.6546 3.61366 1.81399 1.93135 0.481722 1.71034
57 1 63.55 14.4168 3.65056 -0.00948187 1.19471 0.85169 -1.01543
18 1 63.55 16.259 1.77893 -0.0517175 1.26612 1.12765 -0.552701
19 1 63.55 16.2791 0.00646807 1.72824 -0.646053 -0.501632 0.533543
59 1 63.55 16.3436 3.62944 1.75315 0.142344 -0.480729 -0.517927
21 1 63.55 18.0721 -0.0184043 -0.00957753 -0.818707 0.161348 -0.738618
22 1 63.55 19.8787 1.79458 -0.0586043 -0.242247 0.050571 -0.339529
23 1 63.55 19.8824 -0.0312456 1.74061 -0.260541 -0.36853 -1.11958
24 1 63.55 18.1037 1.79566 1.78184 0.278175 -0.743601 -0.0302362
25 1 63.55 21.6871 -0.0726383 -0.0569057 -1.05127 0.923196 0.347609
28 1 63.55 21.6799 1.73637 1.74784 0.214439 -1.25677 -1.6675
61 1 63.55 18.0718 3.62472 -0.00585527 -0.114609 -0.771403 0.436961
63 1 63.55 19.9042 3.61862 1.79489 0.264262 0.58482 -1.5621
65 1 63.55 21.6886 3.59896 -0.071967 0.3195 -0.422792 0.0767258
26 1 63.55 23.4689 1.76247 -0.0374119 -0.512901 -0.838758 1.096
27 1 63.55 23.4739 -0.0668444 1.75903 0.701089 -0.400132 0.527135
29 1 63.55 25.272 -0.011988 -0.0613628 -1.61365 0.63785 0.784294
32 1 63.55 25.2749 1.80813 1.78182 0.243651 -0.838657 -0.273869
67 1 63.55 23.4957 3.57911 1.81716 -0.75651 -0.349259 -0.368818
69 1 63.55 25.2819 3.60325 -0.00481829 0.195874 0.275272 0.679575
30 1 63.55 27.0606 1.78045 -0.0189271 0.775643 -0.747597 0.0810114
31 1 63.55 27.0594 -0.0495386 1.81664 0.795498 0.41256 0.454722
33 1 63.55 28.9324 -0.0478225 0.0310283 -0.0667209 -1.15437 -1.35427
36 1 63.55 28.808 1.80945 1.79296 0.44602 -0.073925 -0.224924
71 1 63.55 27.0731 3.62711 1.83969 -0.0227342 0.754835 0.497311
73 1 63.55 28.9015 3.59925 -0.0175857 -0.985982 0.351544 0.109173
34 1 63.55 30.7348 1.75538 -0.0361612 0.943979 -0.26348 1.2384
35 1 63.55 30.6653 0.00975377 1.82299 2.39539 -0.416362 0.0758941
75 1 63.55 30.6815 3.60478 1.76987 -0.221571 -0.126397 0.972901
37 1 63.55 32.5506 0.0100929 -0.0159836 0.444911 0.311175 -0.45611
38 1 63.55 34.3995 1.78493 -0.0832274 0.34105 -0.507054 0.194235
39 1 63.55 34.3505 -0.0184597 1.70061 -0.00358161 0.50925 0.729882
40 1 63.55 32.53 1.7815 1.76523 -0.119539 -0.317481 0.208935
77 1 63.55 32.6083 3.58913 -0.0835865 -0.159936 0.620321 -0.911141
79 1 63.55 34.3762 3.64809 1.77237 0.82267 -0.254008 0.48371
42 1 63.55 1.76162 5.38753 -0.0376195 0.316115 0.573875 -1.75024
44 1 63.55 0.00350106 5.44995 1.75374 1.68976 1.11857 -0.121414
48 1 63.55 3.65086 5.43632 1.76787 -0.325399 -0.583183 0.546661
81 1 63.55 0.0175819 7.25426 -0.0829616 0.706764 0.329825 0.671197
83 1 63.55 1.82062 7.19705 1.73404 0.671903 -0.12588 0.126575
85 1 63.55 3.56247 7.24993 -0.0575561 0.0870144 0.366089 -1.11621
46 1 63.55 5.37428 5.42762 -0.0292966 0.479654 0.826649 -0.221601
52 1 63.55 7.23975 5.41082 1.80028 -0.417072 0.418297 -0.217719
87 1 63.55 5.4507 7.23432 1.78448 0.0033838 -0.26217 -0.662131
89 1 63.55 7.21564 7.21561 -0.0752004 0.0320237 0.034893 0.0232169
50 1 63.55 9.01578 5.38179 -0.0129545 -0.369092 0.244709 -0.346761
56 1 63.55 10.7969 5.43387 1.7334 -0.685252 -1.01044 0.499256
91 1 63.55 9.00822 7.22251 1.74067 -0.85326 0.843858 1.30012
93 1 63.55 10.8631 7.25711 -0.0264197 -0.348384 -0.0430224 1.078
54 1 63.55 12.6333 5.51097 0.0342913 0.0907416 0.498433 0.786812
60 1 63.55 14.4849 5.45939 1.84238 0.143123 -1.04169 -1.27447
95 1 63.55 12.63 7.25511 1.80639 0.663969 0.257222 1.15837
97 1 63.55 14.4234 7.18748 0.050768 0.0702364 -1.64505 -1.75012
58 1 63.55 16.2175 5.40694 -0.0725564 0.42156 0.462925 0.236889
99 1 63.55 16.2762 7.18719 1.77321 -0.712744 -0.231152 0.894517
62 1 63.55 19.8779 5.38392 -0.0155009 -0.635645 0.372167 -2.04744
64 1 63.55 18.0551 5.46003 1.79219 -2.53233 -0.668906 -0.306061
68 1 63.55 21.7023 5.42442 1.78279 0.383416 0.352146 -0.168528
101 1 63.55 18.0571 7.17707 -0.112261 -1.56662 1.07929 -0.178167
103 1 63.55 19.8769 7.22876 1.77717 -1.06262 0.0480896 -0.10573
105 1 63.55 21.6567 7.23528 -0.0684285 -0.114672 -0.512231 -0.955485
66 1 63.55 23.4779 5.4019 0.017292 -0.266926 -0.545001 -2.0645
72 1 63.55 25.2109 5.43124 1.88817 0.638295 1.46779 0.462465
107 1 63.55 23.3992 7.19241 1.81955 -0.274553 1.5639 0.19884
109 1 63.55 25.2656 7.15124 -0.00021985 1.39237 -0.73644 -0.936948
70 1 63.55 27.0211 5.39846 -0.0137958 0.979022 0.10141 0.287832
76 1 63.55 28.8379 5.39373 1.75078 0.853848 -0.844778 -0.220131
111 1 63.55 27.1261 7.21569 1.7718 -1.06523 0.529277 -0.78954
113 1 63.55 28.8802 7.23857 -0.051888 -0.264873 -0.426722 0.00830303
74 1 63.55 30.7208 5.39269 -0.0282726 -0.10335 0.122157 0.0954313
115 1 63.55 30.697 7.1683 1.73514 1.83916 0.133016 -0.808556
78 1 63.55 34.3944 5.41236 -0.033688 0.0197206 -0.000961441 -0.802392
80 1 63.55 32.5241 5.38727 1.78671 -1.50004 0.721735 0.698118
117 1 63.55 32.5522 7.22463 0.00490866 -0.449976 -0.115422 0.540129
119 1 63.55 34.3584 7.15012 1.78943 -0.149484 -0.217624 1.9822
82 1 63.55 1.76904 9.05805 -0.0277479 0.580901 -0.412663 0.825214
84 1 63.55 -0.0329568 9.01261 1.74596 -0.415483 0.813976 0.879955
88 1 63.55 3.59982 9.01981 1.76892 -0.545751 -0.754502 -0.893205
121 1 63.55 -0.0535508 10.8533 0.00211056 -0.905314 0.675385 -0.37859
123 1 63.55 1.76749 10.8584 1.78585 0.399177 1.28734 1.08982
125 1 63.55 3.58218 10.8562 -0.0297448 1.25792 -0.863894 -0.0619204
86 1 63.55 5.3637 9.04284 -0.0319109 0.355522 -0.0839702 -0.723554
92 1 63.55 7.19429 9.03723 1.77029 -0.878595 0.211382 0.10819
127 1 63.55 5.36481 10.8614 1.78584 0.0586975 -0.479166 0.473848
129 1 63.55 7.2059 10.8357 0.0525551 -0.404498 0.60218 -0.807016
90 1 63.55 9.04139 9.02959 -0.0414928 0.488772 -0.266507 -1.28124
96 1 63.55 10.8162 9.03026 1.81458 -0.590214 -0.449734 -0.522209
131 1 63.55 9.02334 10.8314 1.813 -0.969993 1.27654 -1.23421
133 1 63.55 10.8265 10.8487 -0.0619356 0.245177 0.197301 -0.110066
94 1 63.55 12.6862 9.06421 -0.0570017 0.343926 -1.10182 -0.652953
100 1 63.55 14.4491 9.00812 1.75845 1.38626 0.342235 0.603138
135 1 63.55 12.641 10.7928 1.78932 -0.510493 0.533235 0.0817795
137 1 63.55 14.4433 10.8914 -0.0707378 -0.0403499 -0.0641354 0.192899
98 1 63.55 16.2412 9.0425 -0.00361648 0.0702946 -0.21926 0.62206
139 1 63.55 16.2106 10.8549 1.76515 0.303647 -0.198419 -0.867577
102 1 63.55 19.8037 9.05124 -0.026081 -1.7063 -0.246624 0.877901
104 1 63.55 18.0248 9.01339 1.79723 1.12728 -0.25778 -1.69651
108 1 63.55 21.6378 9.03728 1.75682 -1.32223 -1.0092 -0.775453
141 1 63.55 18.0445 10.8324 -0.0989258 0.344569 -2.05532 0.897415
143 1 63.55 19.8467 10.8102 1.78055 -0.559313 0.508718 -0.692276
145 1 63.55 21.6221 10.8283 -0.0843834 -1.49347 -0.761827 -1.40748
106 1 63.55 23.4982 9.00071 -0.0455515 0.507027 0.47377 0.156456
112 1 63.55 25.2555 8.94216 1.75829 1.40459 -0.977253 0.183023
147 1 63.55 23.4565 10.8222 1.69695 -0.261369 -0.589287 -0.876229
149 1 63.55 25.3138 10.7859 -0.092556 0.0669001 -0.613908 -1.09181
110 1 63.55 27.0549 8.95033 -0.0903916 -0.371693 -0.909342 -1.57112
116 1 63.55 28.9177 9.02551 1.74872 -0.569564 1.56824 -0.856651
151 1 63.55 27.0729 10.7816 1.7636 -0.375877 0.47419 -0.0861769
153 1 63.55 28.8797 10.8479 -0.0283693 0.145114 -0.0730854 -2.30797
114 1 63.55 30.7001 9.04459 0.00600784 0.515763 0.111866 1.6853
155 1 63.55 30.7074 10.839 1.7592 -0.622067 -1.66088 0.583159
118 1 63.55 34.3089 8.9699 -0.0109718 1.18148 0.243614 0.199549
120 1 63.55 32.4839 8.95471 1.75107 -0.486209 -0.180376 0.309687
157 1 63.55 32.5128 10.8459 0.0387293 -1.38147 -0.0408008 -0.437208
159 1 63.55 34.2906 10.8857 1.72848 -0.560693 1.81825 -1.39876
122 1 63.55 1.75472 12.6233 -0.0466608 -0.894248 0.0393254 -0.917106
124 1 63.55 -0.0140328 12.7065 1.75828 1.35288 0.994843 0.266511
128 1 63.55 3.5683 12.6475 1.75604 0.960261 0.822331 -1.33257
161 1 63.55 -0.0237342 14.4693 -0.119171 -1.85282 0.224588 -0.719216
163 1 63.55 1.7669 14.3955 1.788 0.164036 -0.96861 -0.336689
165 1 63.55 3.57115 14.4338 -0.0208251 -1.72128 -0.634314 0.702203
126 1 63.55 5.43571 12.6577 -0.0647756 -0.312632 -0.865301 -1.13616
132 1 63.55 7.20792 12.634 1.83809 -0.246693 -0.556663 0.692785
167 1 63.55 5.36696 14.4685 1.78176 -1.81139 0.384775 0.633654
169 1 63.55 7.16734 14.4538 -0.00913919 -1.07811 0.732018 0.179294
130 1 63.55 8.9686 12.6554 0.0119865 1.44238 -0.484969 0.453935
136 1 63.55 10.8919 12.6664 1.77974 -0.335218 0.0830775 1.18411
171 1 63.55 9.04048 14.4189 1.79049 0.282805 0.0983426 0.838608
173 1 63.55 10.8885 14.452 -0.062189 -0.374668 -0.115823 0.828496
134 1 63.55 12.6777 12.6257 -0.0323105 -0.00356989 0.228221 -0.73305
140 1 63.55 14.4089 12.6223 1.83003 -0.324117 1.60172 2.13541
175 1 63.55 12.6612 14.4817 1.78503 0.142846 0.786087 0.381396
177 1 63.55 14.4224 14.4333 -0.0298311 0.122202 -0.697053 1.24865
138 1 63.55 16.2339 12.6246 -0.139449 -0.753054 -0.121967 0.952518
179 1 63.55 16.1955 14.4226 1.73966 0.812631 -0.317575 -0.0502345
142 1 63.55 19.8701 12.6407 -0.0530656 -0.183608 -0.292447 0.238423
144 1 63.55 18.0069 12.6808 1.70508 -0.218029 -0.332111 -0.632421
148 1 63.55 21.6882 12.6442 1.75006 0.0481309 -1.49438 -0.365833
181 1 63.55 18.07 14.4386 -0.050118 0.733994 0.016518 -1.22701
183 1 63.55 19.8627 14.4291 1.72875 0.0454648 -0.116161 0.129887
185 1 63.55 21.652 14.4482 -0.077134 0.758925 -0.475904 1.35346
146 1 63.55 23.483 12.6414 -0.0661528 -0.935745 -0.870606 1.39569
152 1 63.55 25.2786 12.6221 1.73532 -1.08421 -0.361372 -0.0600839
187 1 63.55 23.4861 14.4515 1.75858 0.794256 0.788768 1.64944
189 1 63.55 25.2753 14.4359 -0.0776282 -0.21381 -1.75008 -0.510967
150 1 63.55 27.1028 12.5824 -0.067341 -0.197558 -0.423415 -0.20839
156 1 63.55 28.9373 12.6309 1.75471 0.267654 1.67604 -1.45681
191 1 63.55 27.1149 14.4242 1.80862 0.614858 2.30816 0.390591
193 1 63.55 28.9118 14.4324 -0.0131329 -0.874906 -0.0768459 -1.82907
154 1 63.55 30.7996 12.6411 0.0417586 -2.31725 2.29715 0.477417
195 1 63.55 30.6987 14.4978 1.78036 -0.718301 0.0495798 -1.07913
158 1 63.55 34.3539 12.6798 -0.0619624 0.317794 1.63995 -0.60428
160 1 63.55 32.4927 12.669 1.85429 -0.204123 -0.229059 -0.853606
197 1 63.55 32.5397 14.4162 -0.0486458 -1.52774 0.423671 -0.211719
199 1 63.55 34.3373 14.4718 1.80576 -0.395099 -1.11571 -0.366575
162 1 63.55 1.76098 16.2517 0.0212013 -0.1281 1.37127 0.159424
164 1 63.55 -0.000828105 16.2236 1.7963 -0.657928 0.065061 -0.829815
168 1 63.55 3.54872 16.2615 1.82877 -1.15363 -0.436511 0.27759
166 1 63.55 5.41787 16.31 0.0244918 0.186089 -1.79878 -0.295076
172 1 63.55 7.22734 16.2744 1.82104 -0.584753 1.14658 0.00394096
170 1 63.55 9.02798 16.2289 0.0364878 -1.11327 0.577512 0.383749
176 1 63.55 10.8784 16.2478 1.76023 -0.429479 -0.125552 -1.30283
174 1 63.55 12.7001 16.2565 -0.0258667 -0.090096 1.13713 -0.416084
180 1 63.55 14.4076 16.3035 1.77387 0.994459 0.635271 -0.245138
178 1 63.55 16.2513 16.2437 -0.0190759 -0.327628 -0.105025 -0.719282
182 1 63.55 19.8462 16.272 -0.01999 0.293497 -0.0046422 -0.906181
184 1 63.55 18.1017 16.2065 1.79719 -0.130484 -0.828685 -1.40853
188 1 63.55 21.6545 16.2514 1.72632 1.08521 -0.958109 0.679239
186 1 63.55 23.4616 16.2363 -0.0519419 1.50802 0.188719 -0.640135
192 1 63.55 25.2842 16.2383 1.72611 -0.410076 0.327551 0.0508811
190 1 63.55 27.1213 16.2644 0.0205902 -0.0290229 -0.367313 -1.63531
196 1 63.55 28.8715 16.2524 1.77443 -0.706006 -0.949789 0.380537
194 1 63.55 30.7536 16.2353 -0.0664311 -0.182094 -1.67145 0.445863
198 1 63.55 34.3876 16.2265 -0.0363311 -1.18603 -0.442759 -0.465341
200 1 63.55 32.4983 16.2539 1.76178 1.05969 0.253677 0.818056
201 1 63.55 -0.042727 18.0803 0.00597839 0.449195 -0.848824 0.702611
202 1 63.55 1.76355 19.8746 -0.0395058 0.169862 1.40339 -1.3157
203 1 63.55 1.80481 18.104 1.77884 0.386426 -1.20509 0.475202
204 1 63.55 -0.0300219 19.9257 1.73469 -0.287145 -0.134822 -2.25497
205 1 63.55 3.5796 18.0953 -0.00287378 0.486671 0.42625 -0.12177
208 1 63.55 3.57891 19.8877 1.77751 0.756352 2.33122 0.595798
241 1 63.55 -0.026672 21.6532 -0.0431972 0.89135 0.289733 -1.0516
243 1 63.55 1.8012 21.6905 1.74917 -0.0290996 -0.147967 0.775456
245 1 63.55 3.5366 21.7279 -0.0365493 -0.457304 -0.575241 0.0298657
206 1 63.55 5.41278 19.8068 -0.0350473 -0.405106 -0.531797 -0.676247
207 1 63.55 5.35628 18.0584 1.84281 -1.20381 0.293899 0.104836
209 1 63.55 7.19315 18.0647 -0.0306186 -0.770635 1.38437 0.743068
212 1 63.55 7.21964 19.8618 1.82775 -0.346666 1.07137 -1.81811
247 1 63.55 5.40508 21.6957 1.75514 -0.466876 -0.508701 -1.44872
249 1 63.55 7.21781 21.6465 -0.015342 -0.0340067 -0.0948197 -0.281656
210 1 63.55 9.06114 19.8647 -0.00822279 -0.18283 0.100188 -0.256028
211 1 63.55 8.99637 18.0314 1.79319 -0.00987061 -1.37541 0.118033
213 1 63.55 10.8882 18.0365 0.0326745 -0.214609 0.546955 -0.803373
216 1 63.55 10.8257 19.8653 1.83469 0.683493 2.37505 -1.69536
251 1 63.55 9.03798 21.7481 1.80325 -1.03601 0.169524 0.212867
253 1 63.55 10.8432 21.722 0.0047055 -0.855954 0.453433 -0.99525
214 1 63.55 12.68 19.903 0.0158803 -1.50863 -0.700048 -0.297107
215 1 63.55 12.6585 18.1036 1.74917 1.35358 -0.128873 1.36454
217 1 63.55 14.4489 18.0771 -0.0561854 2.32943 -1.49066 1.49128
220 1 63.55 14.5494 19.9102 1.69518 0.638888 1.12859 0.246155
255 1 63.55 12.6033 21.6698 1.82771 -0.914043 -1.3836 0.38554
257 1 63.55 14.5088 21.7145 -0.0307472 -0.0965802 -0.000154606 1.09866
218 1 63.55 16.3126 19.8736 -0.0755433 0.432475 -0.274314 1.27491
219 1 63.55 16.2502 18.0425 1.76117 0.552925 -0.0463454 0.134917
259 1 63.55 16.3288 21.6488 1.80857 -0.635874 -1.10202 0.363276
221 1 63.55 18.1054 18.0822 -0.011057 -0.0786946 0.213697 -0.0653582
222 1 63.55 19.8852 19.8374 -0.0628264 1.21094 -0.871374 1.51831
223 1 63.55 19.9177 18.0591 1.73297 1.09521 1.10141 -1.15433
224 1 63.55 18.0662 19.8605 1.78214 -0.994806 -0.489049 1.27508
225 1 63.55 21.6963 18.0736 -0.0641761 0.843751 -0.32304 -1.02632
228 1 63.55 21.7286 19.8745 1.78848 0.161852 -0.943566 -0.320767
261 1 63.55 18.1471 21.6631 -0.0227936 -0.778516 0.55546 1.41709
263 1 63.55 19.9324 21.6668 1.77009 0.677803 0.432517 -0.909021
265 1 63.55 21.6575 21.6674 -0.0332889 -1.55583 0.282612 -0.367259
226 1 63.55 23.51 19.8635 -0.0297146 -1.52067 -0.536924 -2.33944
227 1 63.55 23.4525 18.0634 1.71382 0.0666413 0.156536 -0.111515
229 1 63.55 25.3083 18.0317 -0.0215111 1.58969 0.0588929 0.618425
232 1 63.55 25.2768 19.8348 1.75755 0.663625 -0.555029 0.306621
267 1 63.55 23.5139 21.6693 1.78558 -1.2832 1.97761 -0.547086
269 1 63.55 25.3089 21.6768 -0.0138428 -1.24429 0.157969 -0.482769
230 1 63.55 27.1233 19.8838 -0.0339486 -0.582036 -0.381159 0.282327
231 1 63.55 27.1047 18.0543 1.78125 0.558864 0.327112 -0.688215
233 1 63.55 28.9096 18.0988 -0.0610243 1.47435 0.654924 -1.13514
236 1 63.55 28.9575 19.855 1.81601 -0.905147 1.76294 -0.220715
271 1 63.55 27.0804 21.67 1.79301 -0.232848 -0.125341 0.447694
273 1 63.55 28.881 21.657 -0.0402265 -2.05891 -0.262221 0.232069
234 1 63.55 30.7051 19.8371 -0.0308369 -0.143581 -0.112965 -0.150783
235 1 63.55 30.7267 18.0394 1.8114 0.448619 -0.174166 1.08212
275 1 63.55 30.6906 21.6529 1.73988 -0.55209 -0.955484 0.182661
237 1 63.55 32.5674 18.0498 -0.0140187 -0.356394 0.611558 -0.42467
238 1 63.55 34.3264 19.8428 -0.0284706 0.287784 0.698264 -0.174982
239 1 63.55 34.3472 18.0269 1.77509 0.696413 0.214381 -0.272622
240 1 63.55 32.5407 19.8629 1.82232 -0.842715 0.992223 0.400316
277 1 63.55 32.5038 21.6581 0.0480776 -0.0349947 0.929058 -1.12168
279 1 63.55 34.3571 21.6912 1.77324 0.709009 -0.853998 1.63711
242 1 63.55 1.76826 23.5286 -0.0403171 0.253311 0.791308 0.183921
244 1 63.55 -0.0197911 23.4589 1.79795 -0.208492 -0.167799 1.38786
248 1 63.55 3.62396 23.5064 1.74674 0.920408 0.295376 2.02768
281 1 63.55 -0.0754889 25.3434 -0.0463667 0.574452 1.04352 0.253627
283 1 63.55 1.77741 25.2977 1.75712 0.0490621 -0.177141 0.942123
285 1 63.55 3.5845 25.2745 0.0549878 -0.684593 -0.559734 -0.586124
246 1 63.55 5.39157 23.508 -0.0669968 0.273499 -0.487701 -0.256062
252 1 63.55 7.22875 23.4939 1.77493 0.537481 0.719674 1.34718
287 1 63.55 5.39183 25.3163 1.72061 -0.587532 -1.82788 -0.311384
289 1 63.55 7.22802 25.3144 -0.0391279 0.026853 1.10779 0.524135
250 1 63.55 9.05014 23.4576 -0.14133 -0.412073 1.02379 0.0536852
256 1 63.55 10.8517 23.5321 1.81452 0.668736 -1.04479 0.164311
291 1 63.55 9.04625 25.3083 1.75445 -0.342986 -0.783235 0.386705
293 1 63.55 10.8551 25.3025 -0.0131575 1.86789 -0.811964 0.840331
254 1 63.55 12.7114 23.5156 -0.0599433 1.31256 0.366065 0.621935
260 1 63.55 14.4127 23.4637 1.73399 0.491087 0.285613 -0.585253
295 1 63.55 12.707 25.2704 1.79184 0.433628 0.980412 -0.727805
297 1 63.55 14.4804 25.2884 -0.0481961 -0.495302 1.73469 -0.555065
258 1 63.55 16.2754 23.5016 0.0406468 0.243025 -1.00423 -0.626358
299 1 63.55 16.2428 25.3352 1.75184 -0.562951 -0.0935374 -0.822119
262 1 63.55 19.931 23.4802 -0.0879847 0.0631112 0.204629 -0.0573921
264 1 63.55 18.1251 23.4598 1.76677 -1.11211 -0.553241 1.25152
268 1 63.55 21.7125 23.4826 1.77943 0.11885 0.570299 0.941068
301 1 63.55 18.1681 25.2781 -0.0624108 -0.216539 -1.55168 0.651652
303 1 63.55 19.886 25.3461 1.75067 0.64482 -0.304137 1.02645
305 1 63.55 21.6723 25.3544 -0.0636595 -0.825631 -0.106056 0.212416
266 1 63.55 23.4558 23.4753 -0.0602979 -0.320506 1.38403 1.22765
272 1 63.55 25.2888 23.5466 1.727 0.05521 -0.341218 -1.34415
307 1 63.55 23.4952 25.3671 1.78304 -2.20866 1.29135 0.242615
309 1 63.55 25.2352 25.3246 -0.0554891 -1.43019 0.523787 0.0528643
270 1 63.55 27.0768 23.5113 -0.0304911 1.25781 0.149821 -0.323672
276 1 63.55 28.9002 23.4761 1.77383 0.43274 -0.0435165 -1.84023
311 1 63.55 27.1062 25.363 1.75049 -0.154683 0.623168 0.490457
313 1 63.55 28.8943 25.3051 -0.0540966 0.501049 -0.752685 -0.575964
274 1 63.55 30.6892 23.4403 0.0449769 1.18746 -1.02735 0.184299
315 1 63.55 30.7402 25.262 1.79168 0.270488 -1.07606 -1.66484
278 1 63.55 34.3796 23.4389 -0.000266263 -0.19105 1.43326 0.436198
280 1 63.55 32.509 23.463 1.77901 -0.389583 -0.265342 -0.330917
317 1 63.55 32.517 25.2907 9.179e-05 0.626533 -0.811617 -0.871945
319 1 63.55 34.37 25.3117 1.78449 0.728189 0.0996575 0.560538
282 1 63.55 1.77844 27.1112 -0.022333 0.728076 0.2546 -0.101309
284 1 63.55 -0.0190662 27.1161 1.78695 0.0834971 0.620415 0.712221
288 1 63.55 3.56769 27.1013 1.81004 -0.103281 -0.707601 -1.09174
321 1 63.55 -0.0610972 28.949 -0.041432 1.89451 0.0424606 -1.04599
323 1 63.55 1.78462 28.9542 1.79162 0.239291 1.04193 -0.642821
325 1 63.55 3.59552 28.9166 -0.0206876 -0.394787 -0.0552801 -1.08023
286 1 63.55 5.41447 27.1268 -0.0159839 -0.783527 0.347984 0.0135978
292 1 63.55 7.21373 27.1383 1.79059 0.762279 -1.64865 -1.60068
327 1 63.55 5.38705 28.8964 1.84291 0.516199 -0.202468 0.355621
329 1 63.55 7.20537 28.9614 -0.0169702 0.477968 0.239897 0.811951
290 1 63.55 9.06615 27.1161 -0.0574695 0.588429 0.472465 0.469476
296 1 63.55 10.8374 27.0921 1.83347 0.43764 -0.439584 -0.956854
331 1 63.55 9.03375 28.9182 1.8028 -0.189362 0.55208 0.382073
333 1 63.55 10.8478 28.8779 -0.0151579 0.499736 0.791366 -1.48537
294 1 63.55 12.6385 27.0638 0.000633317 0.36111 -0.0844451 1.64028
300 1 63.55 14.4622 27.1974 1.71071 1.50068 -0.5409 1.10587
335 1 63.55 12.6175 28.9325 1.76098 0.528994 0.429723 0.624458
337 1 63.55 14.4494 28.9069 -0.0813841 0.152786 -0.968414 0.0406193
298 1 63.55 16.3004 27.1043 -0.0611467 -0.0329998 -0.695635 -0.23167
339 1 63.55 16.2714 28.9894 1.79928 0.398199 0.634169 0.150391
302 1 63.55 19.8812 27.2059 -0.0663616 -1.0122 -0.465343 -0.309354
304 1 63.55 18.0431 27.1187 1.73451 0.190384 0.195017 1.38416
308 1 63.55 21.6649 27.1309 1.82034 -1.10291 -1.81363 -0.744699
341 1 63.55 18.0769 28.9895 -0.0528685 0.785518 -0.407266 -1.0547
343 1 63.55 19.8605 28.9141 1.79812 2.45484 -0.601013 -0.759808
345 1 63.55 21.6776 28.9524 -0.120448 -0.093165 2.20492 1.03233
306 1 63.55 23.4865 27.1733 -0.0538544 1.53455 -0.789622 1.25204
312 1 63.55 25.2317 27.0745 1.73913 0.0750978 -0.119316 0.50249
347 1 63.55 23.4553 28.9966 1.75688 -0.15481 0.354978 1.01696
349 1 63.55 25.2922 29.0144 -0.0533261 -0.869853 -0.580698 0.275055
310 1 63.55 27.0944 27.0908 -0.0610895 0.178853 -0.628767 -0.301873
316 1 63.55 28.8646 27.0762 1.75311 -1.07956 1.02803 0.613261
351 1 63.55 27.1276 28.9222 1.72491 -1.19106 -0.56807 -0.556171
353 1 63.55 28.9418 28.877 -0.0521515 -0.575224 -0.495132 -0.0487107
314 1 63.55 30.7618 27.0653 0.0199064 -1.21225 0.663056 1.22492
355 1 63.55 30.7001 28.9286 1.81578 0.888818 -0.966603 0.759364
318 1 63.55 34.3401 27.1429 -0.0458549 -0.906677 0.575351 -0.341049
320 1 63.55 32.583 27.0708 1.81067 1.79574 -0.00901104 -0.23463
357 1 63.55 32.4761 28.9086 0.00779512 -0.754567 -0.462367 -1.01291
359 1 63.55 34.3475 28.934 1.74654 0.00995806 0.0510682 -1.6538
322 1 63.55 1.79485 30.7294 -0.062095 -0.771363 -0.637457 0.963896
324 1 63.55 -0.0207928 30.7396 1.71774 -0.156484 0.624567 0.101582
328 1 63.55 3.62213 30.7196 1.78231 -0.273164 0.424956 0.924673
326 1 63.55 5.39508 30.6774 -0.0125618 0.645591 -0.330468 -0.192128
332 1 63.55 7.19823 30.7236 1.86027 -0.413577 -0.223747 0.140457
330 1 63.55 9.00611 30.7472 -0.0639904 -0.275208 -0.0568076 0.0651783
336 1 63.55 10.8105 30.7182 1.8257 -0.129001 0.292717 -0.821449
334 1 63.55 12.6079 30.7479 -0.0215285 -0.980321 -0.489171 0.228879
340 1 63.55 14.4306 30.7868 1.74423 -0.121626 0.207134 -0.283603
338 1 63.55 16.2754 30.7169 -0.0950072 0.349995 0.276766 0.931432
342 1 63.55 19.9034 30.8073 -0.0757211 0.251645 -0.296689 -1.33896
344 1 63.55 18.088 30.7193 1.755 1.31978 -0.233438 0.286084
348 1 63.55 21.6443 30.7873 1.76639 -0.979951 1.69155 -0.872556
346 1 63.55 23.5 30.7349 -0.0574093 -0.452748 -0.202957 0.808513
352 1 63.55 25.3106 30.7296 1.72274 -0.974577 -0.634499 0.760392
350 1 63.55 27.1255 30.7751 -0.0648065 -0.878767 -0.656367 0.663929
356 1 63.55 28.9058 30.7656 1.77123 0.00900131 0.290615 0.258019
354 1 63.55 30.6882 30.6989 -0.00394492 0.18638 -0.281489 0.312364
358 1 63.55 34.3357 30.7124 -0.0328658 0.864041 1.12478 -0.629913
360 1 63.55 32.5078 30.7269 1.75771 -0.750233 -1.30804 0.383497
361 1 63.55 0.0344217 32.5283 -0.00481454 -1.01224 0.269178 -0.597774
362 1 63.55 1.78626 34.3509 -0.0303366 1.21409 -1.05649 0.0736261
363 1 63.55 1.80339 32.5445 1.71991 -1.05643 0.11717 -0.95681
364 1 63.55 -0.0347404 34.3747 1.79777 -1.48217 -0.38074 1.17291
365 1 63.55 3.59092 32.5691 0.0350065 -0.332721 -0.838522 -1.05624
368 1 63.55 3.54263 34.4069 1.83125 -0.55113 -0.0367576 0.7191
366 1 63.55 5.37155 34.3897 0.00398621 0.483017 -0.760601 -0.40363
367 1 63.55 5.3952 32.515 1.8128 -2.14004 0.139907 0.560933
369 1 63.55 7.17345 32.5786 -0.00694138 0.853159 0.501262 -1.06969
372 1 63.55 7.19902 34.3672 1.79991 -1.15078 0.276661 0.53712
370 1 63.55 9.02753 34.3371 0.00981636 -1.15156 -0.384338 -0.165361
371 1 63.55 9.01284 32.5439 1.79153 -0.692741 0.56694 0.555181
373 1 63.55 10.7671 32.5015 -0.0585316 -0.819148 1.1217 -0.831126
376 1 63.55 10.8855 34.342 1.746 0.322079 -1.07462 -1.33458
374 1 63.55 12.6222 34.2682 -0.0946865 -0.701678 -2.29614 -1.41908
375 1 63.55 12.6407 32.5794 1.75829 1.46202 0.594612 1.9568
377 1 63.55 14.4409 32.5257 -0.0321025 0.40616 -1.10372 -1.2354
380 1 63.55 14.4193 34.3325 1.75779 -1.04992 0.447819 1.09673
378 1 63.55 16.3172 34.2708 -0.0517173 0.618752 -0.671846 0.253107
379 1 63.55 16.2276 32.5098 1.75078 -0.602368 0.155598 -0.0386181
381 1 63.55 18.1242 32.516 -0.011493 1.95574 -0.634595 0.0924083
382 1 63.55 19.8521 34.3571 -0.099706 -0.398277 0.216841 -0.400627
383 1 63.55 19.8837 32.5752 1.76682 0.104964 -0.172913 0.943505
384 1 63.55 18.0339 34.3249 1.78081 -0.0545008 -0.107402 0.250263
385 1 63.55 21.7075 32.5869 -0.0530531 -0.938 0.677847 -0.0572918
388 1 63.55 21.6461 34.3699 1.79835 -1.00339 -1.05285 -0.557678
386 1 63.55 23.4983 34.3289 -0.0675455 0.239526 0.565495 0.0389834
387 1 63.55 23.508 32.5513 1.76873 0.290687 0.399118 0.35766
389 1 63.55 25.2806 32.5193 -0.0782618 0.0552652 0.462888 0.643723
392 1 63.55 25.2818 34.3278 1.77868 -1.81859 -0.658323 0.0787106
390 1 63.55 27.1083 34.397 -0.0272528 -0.272328 1.25933 0.0506487
391 1 63.55 27.0734 32.5614 1.78985 0.895275 -0.817858 -0.253014
393 1 63.55 28.9467 32.5786 -0.0187961 1.21142 0.724598 0.260023
396 1 63.55 28.905 34.3622 1.75986 -2.64394 0.247015 0.723555
394 1 63.55 30.7321 34.3349 -0.00642125 0.533016 -0.413337 1.25022
395 1 63.55 30.7073 32.5705 1.83934 -1.35959 0.0944515 0.426389
397 1 63.55 32.5423 32.5764 0.0228013 -0.668449 1.39922 -0.28231
398 1 63.55 34.3796 34.3304 -0.0197197 -0.760484 -0.0869665 -0.995313
399 1 63.55 34.3359 32.5684 1.76399 0.160715 -0.110225 1.23308
400 1 63.55 32.5629 34.3432 1.75016 1.13564 1.25617 0.462408
401 1 63.55 -0.0941179 0.0605112 3.55028 -0.746125 -0.549611 0.600656
402 1 63.55 1.79994 1.86842 3.59081 -0.257576 -0.261582 0.0592834
403 1 63.55 1.76553 -0.00207341 5.39969 0.278027 0.354149 0.115677
404 1 63.55 -0.0151671 1.8269 5.39475 0.612983 -0.135803 -1.09096
405 1 63.55 3.59578 0.0187073 3.60304 1.49242 -0.393894 0.505267
408 1 63.55 3.58794 1.83878 5.40595 -1.90824 0.778847 -0.451173
441 1 63.55 -0.00561178 3.61924 3.57323 -0.801725 -2.52895 -0.448142
443 1 63.55 1.79197 3.66493 5.38476 -0.699691 0.356012 1.82374
445 1 63.55 3.60674 3.61079 3.64137 -0.129342 0.573413 -1.01577
406 1 63.55 5.45195 1.79068 3.62318 0.137608 -0.0165363 -1.56582
407 1 63.55 5.40854 0.0013842 5.38491 -0.871792 0.50731 0.0284889
409 1 63.55 7.18916 -0.00738286 3.60168 -0.879784 -0.814794 -0.22638
412 1 63.55 7.26312 1.82225 5.40751 0.719354 0.445158 -0.669344
447 1 63.55 5.43094 3.62612 5.39425 -1.05761 0.21543 -0.485266
449 1 63.55 7.24111 3.64489 3.55714 -0.170419 -0.693151 -0.0693763
410 1 63.55 9.10634 1.79579 3.55149 0.697233 1.2389 -0.141353
411 1 63.55 9.02773 0.00657185 5.41744 -0.165157 0.107485 -0.891317
413 1 63.55 10.7892 -0.0468439 3.60088 -0.056434 -0.744796 -1.30717
416 1 63.55 10.851 1.73009 5.44174 -1.0023 -0.445299 0.431675
451 1 63.55 9.1193 3.59197 5.40554 0.136257 0.082542 0.192247
453 1 63.55 10.867 3.60898 3.5688 0.529809 0.639048 -0.976347
414 1 63.55 12.6215 1.80418 3.58836 -0.833795 0.110222 -0.951987
415 1 63.55 12.6688 -0.0347015 5.38482 -0.430999 0.962077 -1.89757
417 1 63.55 14.4922 -0.0447898 3.54783 1.36652 -1.09038 -0.183448
420 1 63.55 14.4559 1.80101 5.37295 0.431791 1.63562 1.09232
455 1 63.55 12.6508 3.63048 5.35355 -0.337131 -0.06486 -0.582266
457 1 63.55 14.5011 3.5758 3.52709 1.19854 0.561511 -0.753801
418 1 63.55 16.3083 1.80439 3.57675 -0.388137 0.885469 -0.0666472
419 1 63.55 16.2524 0.0119411 5.36467 -1.48466 0.742784 -0.516482
459 1 63.55 16.2856 3.57147 5.35452 1.15815 0.815768 0.81354
421 1 63.55 18.0626 0.00976063 3.61538 -1.73525 -0.604355 -0.405504
422 1 63.55 19.8852 1.74046 3.59794 0.309274 0.299271 0.0885766
423 1 63.55 19.8625 -0.0381098 5.38885 0.0935888 0.87987 1.20949
424 1 63.55 18.0691 1.7771 5.42157 -0.666738 0.853966 0.468495
425 1 63.55 21.6843 0.00425372 3.56791 0.728525 0.608637 -0.573279
428 1 63.55 21.7052 1.76608 5.40581 -0.484864 -1.61732 1.37153
461 1 63.55 18.0501 3.61786 3.56679 0.0418644 0.385193 -0.81687
463 1 63.55 19.8721 3.54278 5.41396 -0.194787 0.637182 0.110713
465 1 63.55 21.6825 3.5252 3.57654 -0.24611 0.120182 -0.0815534
426 1 63.55 23.5005 1.79637 3.57443 0.0834844 -0.0516333 -1.02082
427 1 63.55 23.5043 0.0252947 5.42181 0.986299 -0.323338 0.723587
429 1 63.55 25.2809 -0.00715843 3.58814 1.12576 0.241691 0.679761
432 1 63.55 25.2762 1.80412 5.46654 -1.85964 0.281312 0.47772
467 1 63.55 23.4685 3.61008 5.38988 -0.166676 -0.430681 -0.597324
469 1 63.55 25.2859 3.61815 3.61567 0.797026 1.09265 1.26238
430 1 63.55 27.062 1.7626 3.62803 1.51653 0.329256 -1.28976
431 1 63.55 27.0932 -0.0226175 5.4163 0.54826 -1.02266 0.773478
433 1 63.55 28.9451 0.00589099 3.6254 0.294738 0.0856786 1.00536
436 1 63.55 28.886 1.73375 5.42209 -0.686821 -0.128574 0.214566
471 1 63.55 27.0977 3.58055 5.40785 -0.87932 -1.66957 1.15646