ITEM: TIMESTEP
1500
ITEM: NUMBER OF ATOMS
20000
ITEM: BOX BOUNDS pp pp pp
-1.0190384689433785e-02 3.6160190384689535e+01
-1.1027257430626491e-02 3.6161027257430625e+01
-5.4998708870712676e-02 1.8080499870887058e+02
ITEM: ATOMS id type mass x y z vx vy vz
1 1 63.55 0.0270231 -0.015921 -0.0924681 -1.11203 0.391705 -0.333751
2 1 63.55 1.78612 1.79047 -0.0333659 0.258768 0.445438 0.336723
3 1 63.55 1.81239 -0.0175352 1.80945 -0.457066 0.980668 0.0651452
4 1 63.55 0.0042094 1.75083 1.75637 0.7181 -0.535281 0.421928
5 1 63.55 3.65229 -0.0101107 -0.046121 0.26889 -0.773176 0.125856
8 1 63.55 3.62919 1.78873 1.8117 -1.25669 1.31656 -1.10755
41 1 63.55 0.0171675 3.5566 -0.0117973 -0.37132 -0.170563 -0.748523
43 1 63.55 1.82895 3.55163 1.81586 -1.0375 -0.489862 -1.56719
45 1 63.55 3.6067 3.54799 -0.105231 0.738652 -0.297196 0.094595
6 1 63.55 5.45613 1.73392 -0.0107171 -0.525454 0.930256 1.32987
7 1 63.55 5.43289 -0.0211281 1.81404 -0.116847 0.354682 -0.0810152
9 1 63.55 7.26773 -0.040912 -0.0903199 0.667683 0.601177 -0.342335
12 1 63.55 7.20243 1.80617 1.75926 0.536756 1.63252 1.69184
47 1 63.55 5.40271 3.59466 1.75078 0.100888 0.0390806 0.382319
49 1 63.55 7.21552 3.60139 -0.00332242 -1.17625 -0.00951132 -0.258067
10 1 63.55 9.05611 1.82062 -0.0332283 -0.161541 0.948332 0.287928
11 1 63.55 9.03217 -0.0380008 1.74877 -1.12706 1.30898 -1.50654
13 1 63.55 10.8468 -0.00969914 -0.055766 0.0639047 0.853484 -0.704544
16 1 63.55 10.8372 1.79996 1.75234 -0.483013 -0.312872 0.456173
51 1 63.55 9.03247 3.61114 1.73676 -0.0874884 0.258481 1.28439
53 1 63.55 10.8468 3.59239 -0.0163995 -0.0882721 -0.492323 -0.713825
14 1 63.55 12.6528 1.79012 -0.0311054 -0.492187 0.574019 -0.00885344
15 1 63.55 12.6499 -0.0569956 1.74121 0.0441518 1.49982 -0.413627
17 1 63.55 14.4786 -0.0506597 -0.0586594 0.86287 0.0524451 0.904366
20 1 63.55 14.4446 1.74561 1.71667 0.940484 0.326558 0.649602
55 1 63.55 12.6388 3.60208 1.79282 -0.0339074 0.332931 -1.32803
57 1 63.55 14.4501 3.58877 -0.0554559 -0.158176 0.641876 -0.200094
18 1 63.55 16.2954 1.79862 -0.0863501 0.0323508 -0.426042 -1.67662
19 1 63.55 16.3172 -0.0454533 1.76523 0.110658 0.629432 -0.0655465
59 1 63.55 16.2712 3.58939 1.80304 0.0276775 0.430397 0.0342309
21 1 63.55 18.112 -0.0302079 -0.0450592 -0.787933 -0.289397 0.537747
22 1 63.55 19.8556 1.83864 -0.054991 0.328121 -0.15602 0.35699
23 1 63.55 19.9471 -0.0159992 1.76743 0.559302 -1.844 -0.281494
24 1 63.55 18.1189 1.79297 1.82369 1.47469 0.772423 -1.33493
25 1 63.55 21.6754 -0.0215846 -0.0530124 0.121754 1.15635 0.622246
28 1 63.55 21.6686 1.81004 1.79987 -1.18366 -0.180349 0.196391
61 1 63.55 18.0676 3.64274 -0.079287 1.35503 -0.168685 -0.480725
63 1 63.55 19.894 3.63533 1.78101 -0.846408 -0.426374 -0.229273
65 1 63.55 21.6971 3.59586 -0.0594688 0.144701 -0.326796 0.185231
26 1 63.55 23.4694 1.79202 -0.0891223 -0.190136 0.0040125 -0.765635
27 1 63.55 23.4909 0.00412512 1.75793 -1.95303 -0.914962 0.125988
29 1 63.55 25.335 -0.00372141 -0.0231095 -0.194245 1.35003 -1.23125
32 1 63.55 25.3239 1.78363 1.77526 0.833313 1.09075 0.609209
67 1 63.55 23.4659 3.56978 1.71879 0.295691 0.240604 -0.39458
69 1 63.55 25.3561 3.58785 -0.0311708 1.06469 0.453745 -0.0240467
30 1 63.55 27.1378 1.78001 -0.0164471 0.689093 -0.492419 0.356113
31 1 63.55 27.1522 0.023787 1.80637 0.207602 0.407331 -1.25878
33 1 63.55 28.9725 0.0311143 -0.0103783 -0.547093 0.719198 -0.369831
36 1 63.55 28.974 1.79328 1.80934 -0.852049 -0.799011 1.2262
71 1 63.55 27.1495 3.62568 1.78446 -0.231327 0.687658 0.6398
73 1 63.55 28.9349 3.57659 -0.0545673 -0.86763 0.698009 0.212257
34 1 63.55 30.7193 1.79197 -0.0855495 -0.165126 -0.144608 0.0173005
35 1 63.55 30.7489 0.00154391 1.77184 -0.744955 0.692306 0.146106
75 1 63.55 30.7856 3.59026 1.78524 1.08463 -0.270476 1.1668
37 1 63.55 32.4862 -0.0203431 -0.0606784 -0.599909 0.147683 -0.714575
38 1 63.55 34.3544 1.75831 -0.0222065 0.433847 -0.0589965 1.6351
39 1 63.55 34.3803 -0.0241404 1.75243 0.366179 0.643421 -0.0847752
40 1 63.55 32.5549 1.75065 1.76908 -1.72667 0.312426 1.75758
77 1 63.55 32.5797 3.62048 -0.0201034 -1.04758 -0.571332 1.46168
79 1 63.55 34.3999 3.57134 1.79337 0.174749 -0.681921 0.167954
42 1 63.55 1.86952 5.37603 -0.0484206 0.305115 -0.284247 0.799069
44 1 63.55 0.0511999 5.4072 1.74274 -0.831268 0.324788 -1.10377
48 1 63.55 3.60411 5.37667 1.76798 0.736613 -0.193684 -0.535619
81 1 63.55 0.0375576 7.21725 -0.0748882 0.0845917 -0.0951889 -0.816277
83 1 63.55 1.86181 7.22448 1.77117 0.8803 -0.966177 -1.55694
85 1 63.55 3.6001 7.20931 -0.0641322 -0.826571 -0.377075 0.222681
46 1 63.55 5.37139 5.37515 -0.0468634 0.640519 -0.474656 -1.75183
52 1 63.55 7.20532 5.42332 1.73618 -0.195107 -0.943696 -0.215135
87 1 63.55 5.41719 7.24777 1.74834 -1.29887 0.067757 0.410361
89 1 63.55 7.22126 7.15063 -0.0588267 0.0412557 -0.826993 -0.608404
50 1 63.55 9.06014 5.39161 -0.014532 0.50058 0.435709 -1.1388
56 1 63.55 10.8571 5.43376 1.78796 -0.276758 -0.275311 0.238428
91 1 63.55 9.02906 7.28722 1.73314 0.429808 0.328187 0.224301
93 1 63.55 10.8419 7.21878 -0.0413236 0.668284 -0.424316 0.411076
54 1 63.55 12.6426 5.39893 -0.0234886 0.289647 -0.845454 0.49107
60 1 63.55 14.4679 5.367 1.74873 0.56546 1.63093 1.83699
95 1 63.55 12.6552 7.24421 1.7524 -1.0172 -0.705824 0.868991
97 1 63.55 14.4469 7.20581 -0.0452633 0.375678 0.500322 0.097762
58 1 63.55 16.2535 5.39109 -0.0145324 -0.655431 0.708348 0.111501
99 1 63.55 16.2549 7.26101 1.79264 0.693066 1.26643 -1.07617
62 1 63.55 19.9453 5.42788 -0.0514736 -0.547794 -0.308558 1.02009
64 1 63.55 18.0979 5.44792 1.78211 0.728934 -0.153357 0.618746
68 1 63.55 21.7076 5.42644 1.80433 -1.06871 -0.171254 0.548079
101 1 63.55 18.0949 7.21647 -0.0448287 0.457063 2.24066 -0.60427
103 1 63.55 19.9217 7.22048 1.77331 -0.701021 0.22973 2.46893
105 1 63.55 21.7022 7.24451 -0.0911274 -0.583876 0.844236 -0.527838
66 1 63.55 23.5467 5.42811 -0.0442319 0.379204 0.215581 -0.501493
72 1 63.55 25.35 5.41814 1.74987 0.618543 0.826911 0.339601
107 1 63.55 23.4987 7.1688 1.72729 -0.309835 -0.17583 -1.00387
109 1 63.55 25.3326 7.25993 -0.03042 -0.114192 0.173679 0.535926
70 1 63.55 27.1571 5.40535 -0.0247332 -0.28757 -0.522146 0.429717
76 1 63.55 28.9726 5.40658 1.79133 0.44175 -0.237213 -0.00145993
111 1 63.55 27.1611 7.20787 1.75814 -1.31395 0.339278 -0.0165464
113 1 63.55 28.9598 7.19504 -0.0498753 0.851206 -0.689105 -0.0240543
74 1 63.55 30.7338 5.38623 -0.00290505 0.766203 0.795434 -0.0309302
115 1 63.55 30.704 7.26177 1.76528 0.441887 -0.153898 -0.661481
78 1 63.55 34.4213 5.37288 -0.0246095 0.99155 -1.29171 0.862205
80 1 63.55 32.5606 5.39141 1.73984 0.12289 0.271452 0.0904773
117 1 63.55 32.5614 7.16259 0.0352627 -0.224928 0.134177 -0.200887
119 1 63.55 34.4074 7.23593 1.75441 0.121146 0.791429 -1.03343
82 1 63.55 1.80978 9.03948 -0.034611 0.498525 -0.428788 -0.397881
84 1 63.55 0.0167463 9.03472 1.71148 0.778867 0.0196055 1.20658
88 1 63.55 3.65262 9.04274 1.76287 0.58982 -1.31347 0.215193
121 1 63.55 -0.0338489 10.8563 -0.0113453 1.12695 -0.722239 0.736778
123 1 63.55 1.84514 10.9018 1.76131 0.073184 -0.137315 0.696181
125 1 63.55 3.66393 10.8463 -0.0688895 0.223258 1.46958 0.659509
86 1 63.55 5.38316 9.01238 -0.0779095 -0.293554 1.02665 0.773576
92 1 63.55 7.21839 9.03694 1.70115 -0.444312 0.197717 0.218934
127 1 63.55 5.42041 10.9343 1.78903 -1.3595 0.0265869 0.204523
129 1 63.55 7.21375 10.8751 -0.0523123 -0.638656 1.03931 0.235878
90 1 63.55 9.01194 9.03912 -0.0574013 -0.963523 -0.160251 0.406611
96 1 63.55 10.8964 9.04426 1.79544 -0.708832 0.648358 -0.0985729
131 1 63.55 9.01973 10.8589 1.72888 -1.53082 0.0537043 0.451627
133 1 63.55 10.8927 10.8783 -0.0356057 0.332478 0.514147 -0.0741002
94 1 63.55 12.6672 9.02036 -0.0404395 0.557492 -0.059562 0.330619
100 1 63.55 14.4534 9.10176 1.76367 0.908193 1.25814 -2.03207
135 1 63.55 12.6541 10.8641 1.75975 0.322836 0.0352199 -0.369184
137 1 63.55 14.4487 10.8685 -0.0818284 0.269453 0.757554 0.0448671
98 1 63.55 16.2909 9.05236 -0.0234549 -0.830701 0.547822 0.651849
139 1 63.55 16.2657 10.8773 1.74488 1.23988 0.464146 -0.210369
102 1 63.55 19.9298 9.03262 -0.0785156 0.181013 -1.30241 -0.690063
104 1 63.55 18.126 9.06482 1.72077 0.529332 0.873446 0.160797
108 1 63.55 21.7295 8.96508 1.75535 0.458969 0.304998 0.957379
141 1 63.55 18.1254 10.8849 -0.0535585 0.133627 0.800428 -0.359341
143 1 63.55 19.9441 10.824 1.8052 1.00775 0.69137 -0.434782
145 1 63.55 21.7568 10.8241 -0.0647121 0.128574 -0.44114 -0.75666
106 1 63.55 23.5475 9.04401 -0.0242686 -0.274631 0.226637 0.00961165
112 1 63.55 25.372 9.01399 1.79878 0.987969 0.506499 0.422714
147 1 63.55 23.4706 10.8627 1.72017 -1.75651 -0.427375 -1.14315
149 1 63.55 25.3156 10.8839 -0.0586474 -0.373971 -0.066372 -0.627544
110 1 63.55 27.0873 9.06823 -0.0141483 0.318458 0.0938836 -0.251616
116 1 63.55 28.9643 9.03305 1.73575 -0.97951 -1.94648 0.118631
151 1 63.55 27.124 10.8686 1.73571 -0.690923 -1.22657 1.04049
153 1 63.55 28.9195 10.8827 -0.0610335 0.593325 -0.0325672 -0.377704
114 1 63.55 30.7432 9.04242 -0.102833 1.70335 -0.284013 -0.742293
155 1 63.55 30.7371 10.8544 1.75449 -0.336751 -0.359816 0.510363
118 1 63.55 34.3361 8.96684 -0.0572273 1.04812 0.529822 0.264222
120 1 63.55 32.5395 9.05935 1.70782 0.0434443 -0.699514 0.737648
157 1 63.55 32.5808 10.8334 -0.0618701 0.437351 0.404675 -2.30263
159 1 63.55 34.3443 10.8838 1.76037 0.179575 0.698301 -0.182755
122 1 63.55 1.80433 12.6487 -0.068912 0.144089 -0.389343 -0.0338582
124 1 63.55 0.0221399 12.6669 1.77012 -0.760639 -0.368836 0.44811
128 1 63.55 3.60123 12.6684 1.75458 1.16111 -0.526813 0.255205
161 1 63.55 0.004943 14.5035 -0.0865448 -0.255925 1.2278 -0.666391
163 1 63.55 1.80353 14.4539 1.71889 0.49359 0.638122 0.274748
165 1 63.55 3.61788 14.4721 -0.0617685 -0.30381 -0.330816 -0.460897
126 1 63.55 5.44646 12.7238 -0.137507 0.161682 -0.69545 -1.08956
132 1 63.55 7.24656 12.6974 1.73616 -0.345771 -0.179639 0.225692
167 1 63.55 5.47725 14.5065 1.71917 0.125061 -0.522784 -1.39407
169 1 63.55 7.21547 14.504 -0.0841166 -0.822879 0.533539 0.936608
130 1 63.55 9.062 12.6472 -0.0549338 0.389919 -0.87202 -1.18552
136 1 63.55 10.8481 12.667 1.73301 -0.0061438 1.63482 0.150434
171 1 63.55 9.03322 14.4814 1.77615 -1.30737 -0.791632 -0.12073
173 1 63.55 10.8241 14.4889 -0.0737607 -0.500151 0.336865 -0.26107
134 1 63.55 12.7246 12.6793 -0.0627791 -1.45101 -0.725615 -0.828165
140 1 63.55 14.4894 12.6793 1.7907 -1.2275 -0.924152 0.120235
175 1 63.55 12.6648 14.4591 1.76086 0.347442 0.515872 0.529711
177 1 63.55 14.4862 14.4609 0.00961971 -0.660859 0.692777 0.285773
138 1 63.55 16.2885 12.6653 -0.0710764 0.471772 1.63346 0.25879
179 1 63.55 16.3193 14.4484 1.76345 -0.744771 -0.81696 -0.0797445
142 1 63.55 19.9145 12.5968 -0.0297155 -1.56711 0.654537 0.774337
144 1 63.55 18.1111 12.6813 1.75694 -1.18464 -1.56676 -0.0329794
148 1 63.55 21.7054 12.6622 1.73917 -1.06037 1.39486 1.42478
181 1 63.55 18.065 14.4673 -0.0759967 1.26219 -0.377688 -0.513727
183 1 63.55 19.889 14.472 1.76517 0.514566 -0.00747934 0.558566
185 1 63.55 21.6776 14.4847 -0.0632637 0.0613562 -0.0482608 -1.3109
146 1 63.55 23.4935 12.7325 -0.0683834 -0.187838 -0.360653 -0.606087
152 1 63.55 25.3016 12.6905 1.78786 0.630748 -0.57497 -0.0674952
187 1 63.55 23.4853 14.5311 1.76254 0.219888 -0.86356 0.336875
189 1 63.55 25.2847 14.4786 -0.0409932 -0.0915932 -1.4425 -1.31541
150 1 63.55 27.094 12.6679 -0.0360883 -1.25416 -0.987594 -0.493453
156 1 63.55 28.9583 12.6913 1.78141 0.981105 -0.473701 -0.14208
191 1 63.55 27.1531 14.427 1.78183 1.0479 -0.620934 -0.27167
193 1 63.55 28.9263 14.4299 -0.102696 0.612581 0.190388 0.413609
154 1 63.55 30.7943 12.6174 -0.0990444 -0.901652 0.790202 0.423478
195 1 63.55 30.7612 14.4919 1.70289 0.00502981 0.743451 0.893376
158 1 63.55 34.409 12.6566 -0.0417088 0.149201 0.55214 0.0265148
160 1 63.55 32.4999 12.6842 1.70597 0.619076 -0.13238 0.09503
197 1 63.55 32.5654 14.4748 -0.105756 0.299563 0.0972953 1.141
199 1 63.55 34.3691 14.4732 1.72033 0.193276 -0.047543 -0.695479
162 1 63.55 1.82312 16.3248 -0.0604722 0.779356 -0.402058 -0.686395
164 1 63.55 -0.0107722 16.2392 1.69879 -0.311913 -0.802201 0.259423
168 1 63.55 3.65416 16.2521 1.72471 -0.226919 -0.671696 0.884868
166 1 63.55 5.43885 16.3186 -0.0713201 0.0315254 0.145119 -0.695992
172 1 63.55 7.26506 16.3002 1.76006 1.07474 -0.351043 0.128932
170 1 63.55 9.01255 16.3244 -0.0266981 1.03036 1.22691 -0.198623
176 1 63.55 10.8657 16.3095 1.74504 -0.107084 -1.06594 0.069761
174 1 63.55 12.6723 16.2349 0.00998228 0.533845 0.281857 -0.535402
180 1 63.55 14.5014 16.3002 1.75857 -1.3347 0.842863 -0.141178
178 1 63.55 16.2864 16.2795 -0.0267476 -0.215501 -0.0519194 -0.546197
182 1 63.55 19.8792 16.2282 -0.0538135 -1.2029 0.166 0.317339
184 1 63.55 18.0777 16.2634 1.75467 -0.497171 -0.459691 -0.784242
188 1 63.55 21.6919 16.2933 1.78822 1.01631 -0.939124 -0.209836
186 1 63.55 23.5081 16.3071 -0.0622594 0.068519 -0.147898 0.664528
192 1 63.55 25.3056 16.2411 1.74587 -0.158371 -1.41567 1.50355
190 1 63.55 27.1103 16.2128 -0.067083 1.37232 0.799714 -0.519224
196 1 63.55 28.9317 16.2355 1.72529 -1.0513 0.0406453 1.31792
194 1 63.55 30.7552 16.2469 -0.0757221 -0.56792 1.1216 0.459688
198 1 63.55 34.3132 16.2621 -0.0881914 0.319851 -0.889468 0.448948
200 1 63.55 32.5669 16.2842 1.75843 0.026945 -0.179137 -0.797877
201 1 63.55 -0.0140203 18.1081 -0.0681973 0.957051 0.208254 -1.4384
202 1 63.55 1.82285 19.9213 -0.0106156 -0.42844 -0.242828 -0.831718
203 1 63.55 1.85621 18.073 1.73371 -0.838915 0.670035 -0.56899
204 1 63.55 -0.00859186 19.9025 1.73178 0.248221 -0.446216 -1.37804
205 1 63.55 3.69579 18.0719 -0.0628899 -0.282048 0.440092 0.698531
208 1 63.55 3.61212 19.8967 1.77887 1.71902 -0.277315 0.207219
241 1 63.55 0.0378209 21.7102 -0.0595143 -0.332411 -1.45924 -1.11395
243 1 63.55 1.87439 21.7178 1.74012 0.0746415 -0.311004 -1.59871
245 1 63.55 3.6441 21.7378 -0.0546918 1.50588 -1.61591 0.566841
206 1 63.55 5.38057 19.9311 -0.0221516 -0.793598 -0.379742 0.338973
207 1 63.55 5.44718 18.1208 1.73381 -0.588934 -0.401278 0.155588
209 1 63.55 7.24366 18.1315 -0.0370412 -0.686278 -0.405885 -0.00851523
212 1 63.55 7.24248 19.9103 1.7745 -1.68311 0.465225 0.295411
247 1 63.55 5.43994 21.7386 1.76815 0.0960693 0.446766 -0.504427
249 1 63.55 7.20915 21.6575 -0.0462187 -0.267401 -1.31923 0.772117
210 1 63.55 9.08032 19.9051 -0.0457865 -0.656604 -0.170204 -1.29848
211 1 63.55 9.05144 18.1189 1.79773 -0.197535 -0.995551 0.457238
213 1 63.55 10.8412 18.1113 -0.0319081 -1.44695 0.443135 0.851792
216 1 63.55 10.8525 19.9222 1.79622 0.429777 0.483261 0.215717
251 1 63.55 9.02487 21.7401 1.7504 0.991289 -0.320022 -0.463455
253 1 63.55 10.842 21.7258 -0.0673208 0.836893 -0.0571428 0.565478
214 1 63.55 12.6484 19.9184 0.0199493 -0.275798 -1.68266 -0.616224
215 1 63.55 12.6685 18.0317 1.81763 -1.23635 -0.0453783 -0.494917
217 1 63.55 14.4113 18.0892 -0.0433743 -0.402871 -1.06136 -0.424692
220 1 63.55 14.4662 19.873 1.80166 1.26821 -0.343733 -0.332295
255 1 63.55 12.7085 21.709 1.76718 1.41279 -0.386449 0.259326
257 1 63.55 14.5048 21.6727 -0.0295854 -0.0102536 -0.761619 0.593741
218 1 63.55 16.3036 19.8898 -0.0308391 -2.43977 -0.736381 -0.697032
219 1 63.55 16.2788 18.099 1.7894 -0.472761 -0.0778506 -0.461095
259 1 63.55 16.3235 21.6911 1.80843 1.02669 -0.706933 0.885681
221 1 63.55 18.0896 18.065 -0.0850209 1.30214 0.568058 0.364864
222 1 63.55 19.8752 19.9198 -0.037209 -0.271577 1.34712 0.948343
223 1 63.55 19.8947 18.0824 1.73488 -0.0403959 -0.0798963 -0.268277
224 1 63.55 18.1198 19.8619 1.7835 0.951292 -1.74125 0.0916976
225 1 63.55 21.6845 18.083 -0.0737891 0.0810931 0.935209 -0.236893
228 1 63.55 21.6785 19.9247 1.78287 0.323058 0.41133 0.261092
261 1 63.55 18.0692 21.693 -0.0464751 -0.510941 1.13229 0.752837
263 1 63.55 19.9048 21.7043 1.74886 0.811166 -0.0643345 -0.00659474
265 1 63.55 21.6899 21.6815 -0.0513683 -0.0124982 -1.56665 1.0524
226 1 63.55 23.4837 19.8629 -0.0629733 -0.933297 0.591636 0.595503
227 1 63.55 23.523 18.0547 1.7685 -0.425731 0.593786 0.281074
229 1 63.55 25.3204 18.0695 -0.0564183 -0.51991 0.246684 1.1269
232 1 63.55 25.3175 19.8587 1.76163 0.255742 -0.824278 0.313939
267 1 63.55 23.5112 21.6705 1.74505 0.116875 0.305538 0.333695
269 1 63.55 25.3358 21.6913 -0.0684037 0.831201 0.956017 0.291651
230 1 63.55 27.1725 19.8576 -0.0293841 0.122602 0.200809 -0.974982
231 1 63.55 27.1038 18.0085 1.71569 -0.0594057 0.483711 -0.110264
233 1 63.55 28.9809 18.0341 -0.0198302 0.987975 1.00237 0.854972
236 1 63.55 28.991 19.8922 1.73438 0.300273 0.0933913 -0.970069
271 1 63.55 27.0828 21.687 1.75654 -0.574252 0.287824 -0.127523
273 1 63.55 28.9418 21.6996 -0.0859535 0.695055 1.01692 0.395291
234 1 63.55 30.7713 19.8639 -0.0601536 0.859678 0.472706 0.978409
235 1 63.55 30.7789 18.0193 1.74691 0.991066 0.0418849 1.11968
275 1 63.55 30.7403 21.7188 1.78073 -0.293384 -0.610304 0.195476
237 1 63.55 32.5229 18.064 -0.0875551 -1.23102 -0.99235 -0.0815789
238 1 63.55 34.3167 19.8748 -0.0800263 -0.454322 2.25973 -0.287035
239 1 63.55 34.3488 18.0554 1.71512 0.927587 -0.269499 -0.0133829
240 1 63.55 32.5276 19.8435 1.80391 -0.690876 -0.373277 0.638714
277 1 63.55 32.5364 21.6795 -0.0907166 -1.21288 -0.0796858 0.526155
279 1 63.55 34.3687 21.7022 1.69314 -0.959427 0.872741 0.695431
242 1 63.55 1.80007 23.5552 -0.107369 0.557079 -1.02671 0.0215664
244 1 63.55 -0.0220568 23.5303 1.75898 -0.636596 -0.05056 1.26053
248 1 63.55 3.64535 23.5415 1.74662 0.14584 -0.990732 -0.23784
281 1 63.55 0.00336886 25.32 -0.05276 1.11838 0.29894 -0.502743
283 1 63.55 1.78033 25.3046 1.74388 0.343858 -1.3187 -0.388789
285 1 63.55 3.63475 25.3096 -0.092384 0.617746 -0.672739 -0.537827
246 1 63.55 5.4602 23.5409 -0.0737907 0.236895 -1.55033 -1.25421
252 1 63.55 7.16453 23.5207 1.75403 0.698485 -0.312973 -0.500247
287 1 63.55 5.43073 25.3707 1.77292 0.526957 0.673758 0.475477
289 1 63.55 7.24219 25.3137 -0.0849774 -0.932741 -0.561248 0.105942
250 1 63.55 8.95172 23.4984 -0.071078 0.468606 0.293782 -1.84411
256 1 63.55 10.8432 23.452 1.7863 2.11265 -0.445311 0.299344
291 1 63.55 9.05579 25.3026 1.73665 0.406506 0.389348 -0.648673
293 1 63.55 10.8942 25.2548 -0.0027575 2.50556 -0.310787 -1.64756
254 1 63.55 12.7018 23.5083 -0.000988031 0.35391 -0.933679 0.528692
260 1 63.55 14.5223 23.5099 1.7725 -0.247104 -0.111804 -0.327642
295 1 63.55 12.6652 25.3423 1.74753 0.512793 -0.357131 0.339871
297 1 63.55 14.4578 25.316 -0.0490765 0.217722 -0.306569 1.26652
258 1 63.55 16.2649 23.4786 -0.0585266 -0.520343 0.157449 -0.815841
299 1 63.55 16.2851 25.2689 1.65467 0.94488 0.0132715 0.364188
262 1 63.55 19.9084 23.5115 -0.0514012 0.580543 -0.51763 0.721112
264 1 63.55 18.1102 23.4884 1.75645 0.176677 0.289133 -0.324876
268 1 63.55 21.7342 23.5109 1.75537 -0.511004 1.16204 0.0122322
301 1 63.55 18.1009 25.3454 -0.0596015 1.08109 -0.431661 -0.206947
303 1 63.55 19.937 25.2887 1.74196 -0.2256 0.972046 0.619762
305 1 63.55 21.7052 25.289 -0.0717045 0.148663 -0.479323 0.292405
266 1 63.55 23.5035 23.4761 -0.027561 -0.226812 -0.440401 0.91217
272 1 63.55 25.3167 23.4639 1.7275 -0.0955018 0.753626 0.582605
307 1 63.55 23.5255 25.3132 1.78361 1.0434 1.05089 0.188425
309 1 63.55 25.2822 25.2892 -0.0519566 -0.762842 -0.142473 -0.403634
270 1 63.55 27.135 23.5139 -0.0699392 -1.06062 -0.177186 1.35372
276 1 63.55 28.9689 23.5372 1.72373 -0.963315 -0.0827365 -1.36189
311 1 63.55 27.1196 25.3063 1.75196 0.393736 -0.643041 -0.465626
313 1 63.55 28.9262 25.3068 -0.0722816 -0.689408 0.335065 -1.29734
274 1 63.55 30.7464 23.4728 -0.0441594 -0.41127 -0.779679 -0.0803019
315 1 63.55 30.7435 25.3205 1.71047 0.528004 -0.505028 -0.118211
278 1 63.55 34.3467 23.4963 -0.0998289 -0.814818 0.43919 -0.199183
280 1 63.55 32.5576 23.4828 1.73259 -1.16799 0.245302 0.739127
317 1 63.55 32.5822 25.3176 -0.0448669 0.858792 0.319214 -1.10212
319 1 63.55 34.4053 25.3077 1.75722 -0.421433 -0.257203 -1.57343
282 1 63.55 1.79335 27.1274 -0.0559958 0.689005 1.02281 -1.45333
284 1 63.55 -0.000156849 27.1123 1.72013 -1.01742 0.320285 -1.10112
288 1 63.55 3.56721 27.0795 1.7508 -0.368629 0.451422 0.460233
321 1 63.55 -0.0513929 28.9414 -0.0744359 -0.446884 0.0883541 -0.22761
323 1 63.55 1.72046 28.946 1.73317 1.13604 1.01863 -0.747994
325 1 63.55 3.59479 28.8878 -0.0276729 -0.356972 1.01008 -1.08903
286 1 63.55 5.42666 27.1017 -0.0858573 -0.646379 -1.14314 0.0884598
292 1 63.55 7.24981 27.1566 1.70992 1.79346 -0.159078 0.761502
327 1 63.55 5.38305 28.9349 1.74256 0.395378 -0.400717 1.02335
329 1 63.55 7.28054 28.9216 -0.0319834 -0.707978 0.401497 -0.0863892
290 1 63.55 9.06443 27.1282 -0.06774 0.35959 -0.221028 -0.257424
296 1 63.55 10.8096 27.1378 1.74744 -0.20022 -0.669659 0.450099
331 1 63.55 9.06037 28.9577 1.74281 -0.863693 0.633521 0.756016
333 1 63.55 10.8973 28.9888 -0.0632594 0.576922 -0.539265 -0.752967
294 1 63.55 12.6464 27.1402 -0.0304723 1.35107 -0.0266054 -0.865941
300 1 63.55 14.4798 27.0965 1.78348 -0.728322 0.01419 0.0819784
335 1 63.55 12.6677 28.9146 1.6945 0.341966 0.0579913 0.793427
337 1 63.55 14.4838 28.8871 -0.0531421 -1.04567 -0.181766 -0.986986
298 1 63.55 16.3018 27.1905 -0.0449196 0.0209538 -0.12793 0.548352
339 1 63.55 16.3389 28.955 1.78439 1.34181 -1.07212 0.665498
302 1 63.55 19.8786 27.1429 -0.0637114 -1.0573 0.117623 0.17026
304 1 63.55 18.0927 27.0989 1.74892 1.11707 0.437682 0.60778
308 1 63.55 21.6938 27.1336 1.75821 -0.995476 -0.106773 0.755213
341 1 63.55 18.1449 28.8997 -0.100713 -1.34805 0.260206 0.800292
343 1 63.55 19.8402 28.9211 1.74696 0.39138 0.0987794 0.111877
345 1 63.55 21.6581 28.9366 -0.0316427 -0.614951 2.16204 0.970882
306 1 63.55 23.515 27.1238 -0.0487246 -0.267241 -0.237188 0.954463
312 1 63.55 25.3496 27.0992 1.75532 1.35603 -0.418443 -0.494207
347 1 63.55 23.5418 28.9251 1.73705 0.167299 1.56437 -0.542834
349 1 63.55 25.3106 28.9177 -0.0323302 0.358214 -0.846508 0.390599
310 1 63.55 27.1035 27.1008 -0.0759846 -0.5782 0.382375 -0.14466
316 1 63.55 28.9874 27.123 1.7212 0.307423 0.629688 0.134432
351 1 63.55 27.1231 28.9239 1.73293 0.652241 -0.315804 -0.488761
353 1 63.55 28.9648 28.9081 -0.0595773 0.834034 -1.25209 -0.596629
314 1 63.55 30.7713 27.0925 -0.0828453 0.436906 -0.0663051 -0.0134943
355 1 63.55 30.7591 28.9652 1.76104 0.591228 1.42467 -1.00051
318 1 63.55 34.3795 27.1068 -0.104908 1.00204 -1.25995 -0.915522
320 1 63.55 32.575 27.1336 1.71609 -0.429982 -0.508413 -0.558952
357 1 63.55 32.5795 28.9142 -0.0933212 0.572749 -0.0448899 0.064257
359 1 63.55 34.3448 28.9729 1.71012 0.263176 0.960457 0.205743
322 1 63.55 1.80947 30.7264 -0.0960235 0.499356 1.79658 -1.00473
324 1 63.55 -0.0363311 30.7772 1.73865 0.181909 -0.30475 0.625573
328 1 63.55 3.58939 30.7468 1.72065 1.91807 0.306172 0.870066
326 1 63.55 5.4139 30.6827 -0.0699571 0.315704 -0.0450107 -1.04499
332 1 63.55 7.22574 30.7461 1.76829 -0.120207 -0.193162 0.541309
330 1 63.55 9.06805 30.7695 -0.0421606 0.180605 0.18551 -1.78156
336 1 63.55 10.8656 30.7426 1.733 0.23026 0.523198 0.161748
334 1 63.55 12.6656 30.7705 -0.0668136 -1.23374 0.236374 0.12876
340 1 63.55 14.4702 30.7827 1.7279 -0.607351 -0.00182376 -0.379127
338 1 63.55 16.3133 30.6686 -0.0846254 -0.0697778 0.524177 0.920381
342 1 63.55 19.8691 30.7311 -0.0541208 0.361121 -0.428087 -0.419911
344 1 63.55 18.1415 30.7468 1.79525 0.312892 -0.894536 -1.30136
348 1 63.55 21.7051 30.7284 1.76471 -0.861677 -0.947775 -0.727424
346 1 63.55 23.5402 30.7515 -0.0779838 1.29224 0.174819 0.522879
352 1 63.55 25.332 30.7062 1.78891 -0.00224987 -0.296186 0.0878514
350 1 63.55 27.1306 30.7099 -0.0687746 1.28667 -0.703394 0.0338472
356 1 63.55 28.9464 30.7107 1.71225 -0.455285 1.04627 -0.991076
354 1 63.55 30.7613 30.7382 -0.0900507 -0.324352 1.56179 0.019601
358 1 63.55 34.3405 30.7396 -0.0919814 0.203901 -0.440332 0.787442
360 1 63.55 32.5387 30.7416 1.68777 0.375611 -1.67862 0.587075
361 1 63.55 0.0194322 32.5236 -0.0688177 0.882534 -1.03711 0.719819
362 1 63.55 1.81259 34.37 -0.0455294 -0.592992 1.71081 -1.05683
363 1 63.55 1.76674 32.4992 1.75553 0.175357 0.987959 -0.237053
364 1 63.55 -0.0225808 34.3682 1.74695 1.89612 -0.692508 -0.224001
365 1 63.55 3.58804 32.5341 -0.0111152 -0.988153 -0.00689753 0.142168
368 1 63.55 3.60934 34.3442 1.79713 -0.0865853 -0.465138 0.393011
366 1 63.55 5.46922 34.3615 -0.0356487 -0.260692 0.204232 0.445619
367 1 63.55 5.49353 32.5518 1.71387 0.591392 -0.505315 -0.999953
369 1 63.55 7.25432 32.5565 -0.0864364 0.0250317 -1.04536 -1.18653
372 1 63.55 7.2588 34.3316 1.75842 -1.02931 -0.0203272 -1.00216
370 1 63.55 9.08896 34.3545 -0.0444029 0.0652917 -1.34283 0.139814
371 1 63.55 9.05887 32.5529 1.75622 -0.443752 -0.47283 -0.545881
373 1 63.55 10.8229 32.5213 -0.0691312 0.0332632 -0.778029 -0.442451
376 1 63.55 10.8189 34.3502 1.77471 -0.409788 0.795622 -1.19914
374 1 63.55 12.613 34.3622 -0.075943 0.224016 -1.262 -0.971971
375 1 63.55 12.6501 32.6047 1.7779 0.162297 0.33308 0.314074
377 1 63.55 14.4525 32.5626 -0.028937 -0.101213 -0.934013 -0.577126
380 1 63.55 14.4835 34.3154 1.73791 0.100308 0.164537 0.461764
378 1 63.55 16.2893 34.3295 -0.057279 -0.0759832 -0.280772 0.557983
379 1 63.55 16.3025 32.5016 1.70007 -0.453961 -0.117446 0.254499
381 1 63.55 18.0812 32.5219 -0.0399535 1.47258 0.0722122 0.519535
382 1 63.55 19.9083 34.3428 -0.0901262 -1.05522 1.71375 -1.10642
383 1 63.55 19.8941 32.5545 1.76088 0.842737 1.53276 1.40952
384 1 63.55 18.0863 34.3465 1.68962 0.602366 -1.73608 0.551347
385 1 63.55 21.6841 32.5476 -0.0431002 1.00763 1.0706 1.54938
388 1 63.55 21.7163 34.3109 1.74298 -0.724695 -0.635466 0.0175965
386 1 63.55 23.5117 34.3604 -0.0770469 -1.44984 -0.991788 0.474798
387 1 63.55 23.4927 32.5662 1.78315 0.811538 -0.132478 -0.740618
389 1 63.55 25.3156 32.5761 -0.0546637 0.740604 -0.328031 -1.02595
392 1 63.55 25.3381 34.3592 1.72031 0.709405 0.0808637 1.2204
390 1 63.55 27.1496 34.3526 -0.0697534 -0.10286 -0.31105 -1.21497
391 1 63.55 27.1378 32.5645 1.7405 0.30788 -0.286074 1.29819
393 1 63.55 28.9544 32.5177 -0.06114 -0.971919 1.33435 -0.831149
396 1 63.55 28.9163 34.4087 1.79051 0.234188 -0.189511 -0.0811274
394 1 63.55 30.737 34.3354 0.000773554 -0.0132452 -0.674734 -1.13252
395 1 63.55 30.7408 32.5423 1.78383 0.591726 0.45852 -0.124212
397 1 63.55 32.5631 32.5665 -0.0630396 -0.574006 0.569691 0.523525
398 1 63.55 34.3873 34.3905 -0.11916 1.28543 -0.0157304 -1.30805
399 1 63.55 34.3866 32.5556 1.74054 -0.319897 0.558662 0.462333
400 1 63.55 32.5441 34.3737 1.74335 0.447492 0.312369 0.0311366
401 1 63.55 -0.0121843 -0.0482712 3.61808 -0.190565 0.409589 0.0214908
402 1 63.55 1.82579 1.75451 3.58017 -0.937519 1.17335 1.03686
403 1 63.55 1.81424 -0.00940822 5.39016 1.02437 0.272676 0.507229
404 1 63.55 -0.0280356 1.77965 5.37035 -0.624195 -0.873318 -1.50437
405 1 63.55 3.65044 -0.00128301 3.59584 0.874969 -0.393926 -0.00416425
408 1 63.55 3.63263 1.80912 5.40191 -0.514964 -0.885025 0.509687
441 1 63.55 0.0128681 3.58365 3.57811 0.512439 -0.326896 -0.0272388
443 1 63.55 1.82133 3.6143 5.31162 0.238069 -0.0360762 -1.37912
445 1 63.55 3.69333 3.58012 3.61391 0.744169 -0.365057 0.616466
406 1 63.55 5.42592 1.81278 3.61266 -0.157396 0.649398 0.687537
407 1 63.55 5.41523 -0.0417552 5.33313 0.372739 0.359129 0.0205094
409 1 63.55 7.26619 -0.0331358 3.51658 -0.350376 0.46656 0.29911
412 1 63.55 7.21488 1.80251 5.29286 -0.793307 -0.100551 1.02319
447 1 63.55 5.46226 3.63325 5.37743 -0.692609 0.948195 1.41292
449 1 63.55 7.22693 3.59939 3.49883 -0.975447 -0.121442 -0.421748
410 1 63.55 9.02918 1.8153 3.55513 -0.276376 1.12931 0.213521
411 1 63.55 9.05223 0.00153817 5.39127 0.225506 -0.408877 0.21399
413 1 63.55 10.8311 -6.47839e-05 3.56672 0.213291 0.496919 -0.0780765
416 1 63.55 10.8876 1.75069 5.36672 1.14308 -0.0799513 -0.502137
451 1 63.55 9.11909 3.63284 5.38175 -0.571974 -0.345434 -0.222146
453 1 63.55 10.8375 3.62747 3.55534 -0.459731 -1.29947 0.395967
414 1 63.55 12.6894 1.7411 3.50504 -0.259202 -0.115963 -0.463302
415 1 63.55 12.6935 -0.0386771 5.33373 -0.297926 0.319155 0.0116309
417 1 63.55 14.4724 -0.0568578 3.55737 -0.840394 -0.620668 0.628978
420 1 63.55 14.5216 1.7141 5.3951 1.27465 0.0900595 -0.375281
455 1 63.55 12.6843 3.55979 5.37548 -1.1654 1.01525 -0.952357
457 1 63.55 14.4661 3.54208 3.53117 -1.06004 0.286751 -1.74359
418 1 63.55 16.2868 1.78951 3.58723 0.683851 0.318148 -0.0234769
419 1 63.55 16.2932 -0.03948 5.39086 -0.664406 -1.22216 0.340211
459 1 63.55 16.276 3.63763 5.41824 -1.2074 1.60766 -2.09672
421 1 63.55 18.108 0.0176113 3.57334 0.365601 0.226361 -0.613847
422 1 63.55 19.9276 1.7652 3.57781 -1.33403 -1.03967 0.224364
423 1 63.55 19.9219 -0.0494629 5.36087 -0.854306 -1.07072 0.939773
424 1 63.55 18.1113 1.79 5.38341 0.141721 0.144966 -0.152604
425 1 63.55 21.7153 -0.0675458 3.6173 -0.251051 0.303446 0.0554031
428 1 63.55 21.7162 1.82058 5.37213 0.288993 -0.509149 -0.323884
461 1 63.55 18.0986 3.62283 3.57519 -0.312598 -0.703448 0.283168
463 1 63.55 19.8776 3.61521 5.3769 -0.880382 -0.180433 0.273303
465 1 63.55 21.7368 3.62834 3.58204 0.423104 -0.7163 0.256793
426 1 63.55 23.5271 1.78621 3.58919 -0.481553 0.128836 -1.53381
427 1 63.55 23.4908 -0.000992724 5.37733 -0.084408 -0.249945 -0.29319
429 1 63.55 25.3463 -0.028468 3.55881 0.097204 0.62783 0.0976076
432 1 63.55 25.302 1.7775 5.36735 0.471196 -0.19957 0.50683
467 1 63.55 23.5278 3.61821 5.38557 0.411071 -0.0733744 0.396883
469 1 63.55 25.34 3.56338 3.56397 -0.256171 -0.0457192 -0.469976
430 1 63.55 27.1504 1.84001 3.6096 -0.369799 1.01241 -0.787921
431 1 63.55 27.1419 -0.0180683 5.38615 -1.26369 -0.180508 0.713289
433 1 63.55 28.9717 0.0488173 3.59535 0.589458 0.558959 -0.38167
436 1 63.55 28.9747 1.80027 5.41258 1.04716 0.0917288 0.252132