ITEM: TIMESTEP
2000
ITEM: NUMBER OF ATOMS
20000
ITEM: BOX BOUNDS pp pp pp
-1.7131489794891763e-02 3.6167131489794933e+01
-1.4526314547644859e-02 3.6164526314547516e+01
-6.1860065839013600e-02 1.8081186006583960e+02
ITEM: ATOMS id type mass x y z vx vy vz
1 1 63.55 -0.00712888 -0.0351479 -0.0484972 -0.503299 0.539927 0.350431
2 1 63.55 1.79311 1.76151 -0.0477603 0.454023 -0.409124 0.133152
3 1 63.55 1.80303 -0.0469943 1.76928 0.855169 0.66641 0.536117
4 1 63.55 0.00525458 1.81206 1.77422 -0.100694 -1.75855 -1.70431
5 1 63.55 3.603 0.0287985 -0.0164723 0.195207 0.68174 -0.0741346
8 1 63.55 3.57658 1.86421 1.77417 -0.971997 0.771324 -0.584508
41 1 63.55 0.038438 3.61785 -0.066141 0.0537485 1.0816 -0.401669
43 1 63.55 1.79168 3.67888 1.74157 -0.951236 -1.17695 0.87628
45 1 63.55 3.58173 3.60566 -0.0761816 0.072979 1.09699 0.41995
6 1 63.55 5.44825 1.78578 -0.0558702 0.898464 -0.948554 -0.643282
7 1 63.55 5.38782 0.056724 1.7983 0.408983 1.44647 0.621737
9 1 63.55 7.26683 0.00637591 -0.00907861 -1.15671 -0.0410982 -1.95462
12 1 63.55 7.27238 1.82858 1.73807 0.585271 -2.12533 -0.685877
47 1 63.55 5.4167 3.6719 1.73286 -0.939171 0.39114 -1.24832
49 1 63.55 7.23021 3.65783 -0.0715692 -0.207905 -0.477812 1.01232
10 1 63.55 9.07716 1.80874 -0.00667524 -0.54192 1.07593 0.234167
11 1 63.55 9.07673 0.0522422 1.72923 1.12321 -0.174136 0.643625
13 1 63.55 10.8662 0.0197403 -0.0725782 -0.814135 0.816806 0.818713
16 1 63.55 10.8581 1.78622 1.77547 -0.273074 0.330473 -0.847716
51 1 63.55 9.08199 3.62067 1.7181 -0.627174 -0.708088 -0.896094
53 1 63.55 10.8744 3.63047 -0.0473484 -0.190284 -0.29218 -1.4238
14 1 63.55 12.6475 1.77974 -0.0936155 -0.0115575 -0.785924 -0.451157
15 1 63.55 12.6749 0.0133608 1.78725 0.460565 -0.477429 -0.645392
17 1 63.55 14.4971 -0.00941253 -0.0324573 0.197249 1.22166 0.505476
20 1 63.55 14.4872 1.83376 1.78835 -0.715308 -0.236366 -0.0134523
55 1 63.55 12.6307 3.60117 1.7456 -0.663117 -0.186613 0.90474
57 1 63.55 14.4793 3.55637 -0.0619715 0.37773 -0.222645 1.89854
18 1 63.55 16.3175 1.82659 -0.0359366 0.552981 -1.13114 -1.60345
19 1 63.55 16.2824 -0.0489168 1.72317 0.888332 0.0827443 0.304345
59 1 63.55 16.2912 3.62805 1.77463 0.40587 -0.622211 -0.971277
21 1 63.55 18.1254 0.00612975 -0.0995809 0.969677 0.0903029 0.903261
22 1 63.55 19.8744 1.79227 -0.081233 -0.0872954 -0.322569 1.14698
23 1 63.55 19.9369 -0.0031425 1.75201 0.338396 0.47125 -0.51193
24 1 63.55 18.1028 1.79569 1.70304 -0.787916 -1.36333 0.301991
25 1 63.55 21.6933 -0.0279779 -0.0417752 -0.193291 0.945199 -1.26795
28 1 63.55 21.6905 1.85648 1.75631 -0.648762 -0.125565 1.21911
61 1 63.55 18.052 3.66067 -0.027373 -0.128279 1.31422 -0.533305
63 1 63.55 19.881 3.64776 1.74911 0.65207 0.503173 1.01315
65 1 63.55 21.6806 3.63724 -0.0696035 0.948365 -0.0755865 0.572903
26 1 63.55 23.5067 1.83852 -0.066762 0.847464 0.818302 1.38274
27 1 63.55 23.5011 0.00770555 1.70988 0.748782 0.697077 -0.0460183
29 1 63.55 25.329 0.00867325 -0.0616523 -0.134644 0.532473 0.255964
32 1 63.55 25.2743 1.82717 1.74308 0.248752 -0.119843 0.583642
67 1 63.55 23.5525 3.64547 1.74744 0.328462 -1.06662 0.765245
69 1 63.55 25.2957 3.59519 -0.0714465 0.292281 -0.0615249 0.576304
30 1 63.55 27.1534 1.79555 -0.029291 0.0680861 0.365612 0.276306
31 1 63.55 27.1116 0.00684925 1.75252 -0.815252 1.00242 0.736051
33 1 63.55 28.9048 -0.0296629 -0.0883338 0.814252 -1.68498 0.703687
36 1 63.55 28.9476 1.80573 1.7391 -0.756331 -0.17818 -0.94311
71 1 63.55 27.1384 3.60393 1.69477 -0.250593 0.645884 0.588666
73 1 63.55 28.9428 3.54703 -0.0163994 -0.508392 -0.673121 -0.128537
34 1 63.55 30.7471 1.75131 -0.0386309 -0.606989 0.149917 0.94216
35 1 63.55 30.7484 -0.0120796 1.75619 0.0267089 0.404538 -0.172352
75 1 63.55 30.7566 3.61517 1.73204 -1.45139 -0.0818733 0.0117866
37 1 63.55 32.5339 0.0198558 -0.0286443 0.109731 -0.409569 1.37256
38 1 63.55 34.4038 1.77951 -0.0866495 -0.35806 -0.0673092 0.335132
39 1 63.55 34.3733 -0.0179327 1.73271 -0.270454 0.904448 -0.115636
40 1 63.55 32.5964 1.8189 1.76467 -0.510098 0.960297 -0.732035
77 1 63.55 32.5646 3.61022 -0.0765525 1.10974 0.599594 -0.0353791
79 1 63.55 34.4045 3.60221 1.71812 -0.188924 -1.85832 -0.124019
42 1 63.55 1.80329 5.3958 -0.0852687 0.0912635 -1.00283 0.329722
44 1 63.55 0.0100824 5.46555 1.74345 0.315915 -1.62352 0.632877
48 1 63.55 3.61044 5.48903 1.7773 -0.413422 -0.333902 0.0412483
81 1 63.55 0.0170712 7.25356 -0.0496411 1.35046 -0.00848602 -1.11485
83 1 63.55 1.81587 7.23878 1.76962 -0.595088 0.685509 -0.0145628
85 1 63.55 3.59107 7.27202 -0.0600364 -0.408505 1.66469 1.18758
46 1 63.55 5.41285 5.44692 -0.0513145 -1.1808 0.902232 0.72671
52 1 63.55 7.30113 5.41212 1.78678 -0.527508 0.0878733 0.219612
87 1 63.55 5.4491 7.23209 1.73191 0.767992 -0.486663 0.412439
89 1 63.55 7.21918 7.23848 -0.0769845 0.398965 -0.192935 -0.0144664
50 1 63.55 9.07203 5.47862 -0.0734383 0.5338 -0.756182 -0.186447
56 1 63.55 10.8343 5.39817 1.73023 -0.317409 -1.66047 -0.0256383
91 1 63.55 9.06013 7.22287 1.71435 -1.23318 1.8118 0.94903
93 1 63.55 10.8808 7.25886 -0.0728415 -0.362651 0.336436 -0.506648
54 1 63.55 12.7233 5.38401 -0.0922276 0.415443 -0.125692 -0.503974
60 1 63.55 14.5147 5.43304 1.72614 0.0874215 -1.59827 0.166484
95 1 63.55 12.6679 7.23614 1.71199 -0.679808 0.963051 1.12858
97 1 63.55 14.4772 7.21943 -0.0706321 0.391246 0.762844 -0.363782
58 1 63.55 16.248 5.45419 -0.131716 0.389536 -0.201012 -0.24406
99 1 63.55 16.2857 7.22258 1.78241 0.385629 -1.07132 0.639383
62 1 63.55 19.9113 5.45861 -0.0475767 -0.414479 0.594447 -1.29236
64 1 63.55 18.0701 5.46964 1.76033 -0.856332 0.54942 -0.255032
68 1 63.55 21.6868 5.39242 1.7497 -0.130571 -1.10238 -2.06746
101 1 63.55 18.1086 7.16472 -0.0920318 0.797254 -0.727943 1.63329
103 1 63.55 19.9222 7.24135 1.73263 0.132979 -0.413334 0.229747
105 1 63.55 21.759 7.23306 -0.059 0.873236 0.0937838 -0.546404
66 1 63.55 23.5374 5.38464 -0.0523341 -1.37639 0.00793647 -0.626947
72 1 63.55 25.3663 5.39664 1.70282 -0.159648 -0.381149 0.885257
107 1 63.55 23.5301 7.19457 1.74523 -0.820317 0.0815796 0.313573
109 1 63.55 25.3287 7.2451 -0.0892552 0.460545 -0.105087 0.48896
70 1 63.55 27.147 5.41366 -0.0474326 0.485399 0.446973 0.84875
76 1 63.55 28.9217 5.43472 1.78117 0.566133 0.338665 -1.14196
111 1 63.55 27.137 7.2647 1.72674 0.324112 -0.0621177 1.29224
113 1 63.55 28.9274 7.24061 -0.0349414 1.0973 -0.978121 -0.848526
74 1 63.55 30.7666 5.39313 -0.070136 1.36887 -1.04556 1.31789
115 1 63.55 30.6918 7.20511 1.73119 -0.921205 0.178044 0.950486
78 1 63.55 34.3754 5.44741 -0.0388762 -0.395834 0.133593 0.288663
80 1 63.55 32.5359 5.45429 1.80428 0.33585 -0.200141 1.26006
117 1 63.55 32.5396 7.19271 -0.038805 0.768724 -1.66397 0.395326
119 1 63.55 34.371 7.26006 1.77321 0.150533 0.509078 -0.280276
82 1 63.55 1.73086 9.06973 -0.0355431 0.533592 0.408965 0.0131656
84 1 63.55 0.0119452 9.0626 1.76864 -1.18873 -0.833451 -0.675476
88 1 63.55 3.61327 9.0457 1.7107 0.171323 0.930143 -0.415142
121 1 63.55 -0.0589355 10.8385 -0.088259 1.04597 -0.0515166 -1.29512
123 1 63.55 1.79438 10.8395 1.69499 -0.0343228 1.01384 0.291149
125 1 63.55 3.60559 10.8423 -0.0538923 1.66932 -0.398259 0.309902
86 1 63.55 5.42786 9.07582 -0.051946 0.809173 -1.67682 0.667853
92 1 63.55 7.20805 9.05661 1.71747 -1.52093 0.87322 -0.112556
127 1 63.55 5.4406 10.8598 1.71126 0.789733 1.45131 -0.130317
129 1 63.55 7.26811 10.8435 -0.0753676 0.857425 -0.447605 1.12249
90 1 63.55 9.08071 9.02228 -0.0986667 -0.0876065 -0.536692 1.44109
96 1 63.55 10.8119 9.08026 1.72266 -0.0645136 -0.346532 -1.48849
131 1 63.55 9.11259 10.8491 1.76216 -1.23887 0.640942 -1.06267
133 1 63.55 10.9051 10.8494 -0.0914702 0.314328 -0.130661 -1.34929
94 1 63.55 12.6889 9.03316 -0.122092 0.547168 -1.11919 -0.422728
100 1 63.55 14.4911 8.96984 1.75833 0.241812 -0.0331779 1.35981
135 1 63.55 12.6784 10.8128 1.74437 -1.58185 -0.849937 0.851919
137 1 63.55 14.5184 10.8028 -0.0351553 1.24019 1.22783 0.125828
98 1 63.55 16.2811 9.01871 -0.10303 0.775683 0.345331 -0.354485
139 1 63.55 16.3091 10.837 1.70747 -2.1201 1.01969 0.737445
102 1 63.55 19.877 9.03877 -0.0203481 -1.20513 -0.241778 0.406576
104 1 63.55 18.0764 8.99193 1.70737 0.530496 0.72408 -1.36867
108 1 63.55 21.6998 9.05095 1.75357 0.0743522 1.18931 0.121992
141 1 63.55 18.1133 10.8351 -0.082075 0.0342282 -0.464078 -1.08651
143 1 63.55 19.8934 10.81 1.78777 -1.06081 -0.56203 0.0235707
145 1 63.55 21.6697 10.8059 -0.0403492 -0.00719024 -0.396695 0.658659
106 1 63.55 23.5143 9.03978 0.00624864 0.78577 -0.574944 -0.681937
112 1 63.55 25.3077 9.03759 1.72146 -1.59596 0.192264 0.515443
147 1 63.55 23.5031 10.9029 1.77806 0.640977 0.668235 -0.653659
149 1 63.55 25.3142 10.8794 -0.0470465 -0.287519 0.801057 0.215893
110 1 63.55 27.1351 9.0611 -0.085168 0.556342 -0.655132 -1.10776
116 1 63.55 28.8997 9.05611 1.73071 -0.014497 -0.472367 -1.10301
151 1 63.55 27.1491 10.8598 1.72479 0.454444 0.848585 1.32867
153 1 63.55 28.9482 10.8973 -0.0517783 -0.699324 0.0757035 0.399447
114 1 63.55 30.7189 8.99748 -0.053138 -0.136662 -0.873969 -0.21252
155 1 63.55 30.7073 10.8756 1.80052 1.21268 -1.35639 0.177776
118 1 63.55 34.2951 9.04834 -0.0687065 -0.209537 0.280323 -0.583084
120 1 63.55 32.514 9.02051 1.72971 1.39606 0.454335 0.759507
157 1 63.55 32.4397 10.8359 -0.0596771 -0.0715613 -0.609411 0.322766
159 1 63.55 34.2994 10.8294 1.73697 -0.14895 1.41963 -1.98511
122 1 63.55 1.75856 12.6111 -0.0363331 0.424555 -0.280831 -0.616446
124 1 63.55 -0.0931007 12.6414 1.72457 -0.47152 1.00035 0.538037
128 1 63.55 3.66607 12.6868 1.7661 -0.334766 -0.880799 -1.5144
161 1 63.55 -0.0500063 14.4209 -0.0339236 -0.255008 -0.308768 0.882403
163 1 63.55 1.83874 14.4358 1.72826 -1.05891 0.0890182 -1.15428
165 1 63.55 3.65652 14.432 -0.0746399 0.835812 0.691678 -0.797355
126 1 63.55 5.44066 12.6435 -0.0918294 -0.166495 -0.146361 -0.586308
132 1 63.55 7.28345 12.6506 1.72125 -0.0704187 0.814161 -0.469532
167 1 63.55 5.45156 14.4234 1.68101 0.48111 -0.375345 1.54402
169 1 63.55 7.30909 14.4814 -0.0771977 1.55261 -0.359183 -1.00907
130 1 63.55 9.07245 12.6413 -0.120113 0.452325 0.268501 1.12077
136 1 63.55 10.8725 12.6056 1.76452 0.192364 0.858581 -0.618771
171 1 63.55 9.07983 14.4194 1.74151 -0.726835 0.847474 -0.456084
173 1 63.55 10.8902 14.4754 -0.074507 -0.175202 0.32059 -0.864266
134 1 63.55 12.6883 12.6429 -0.0965379 -0.135136 -0.275758 0.416737
140 1 63.55 14.4594 12.5774 1.76109 2.30766 -0.801114 0.19654
175 1 63.55 12.6281 14.3931 1.74097 -1.11269 -0.0469156 -0.507506
177 1 63.55 14.4282 14.4176 -0.0674361 0.461438 -0.765777 -0.819098
138 1 63.55 16.2976 12.6491 -0.106767 -0.83894 0.922669 0.574914
179 1 63.55 16.2691 14.4312 1.72315 -0.797171 0.0150525 0.00365385
142 1 63.55 19.8772 12.6555 -0.026761 0.81464 0.661397 -0.786795
144 1 63.55 18.0866 12.6455 1.73109 0.751955 -0.387922 0.682191
148 1 63.55 21.7199 12.6467 1.71903 0.800555 -0.736647 -1.08024
181 1 63.55 18.1306 14.4446 -0.0896802 0.422446 -0.178372 0.838864
183 1 63.55 19.9049 14.4152 1.78687 -0.145239 0.141321 1.09916
185 1 63.55 21.6533 14.4628 -0.0403836 0.164368 -1.49966 0.410469
146 1 63.55 23.5509 12.6949 -0.0418432 -0.225235 1.18745 1.14999
152 1 63.55 25.3096 12.6378 1.78594 -1.37051 0.40283 -0.256006
187 1 63.55 23.4578 14.473 1.79136 -0.106566 -0.372529 -0.687144
189 1 63.55 25.2916 14.4693 -0.0203836 -0.47057 0.944845 -0.615133
150 1 63.55 27.125 12.6868 -0.0153773 -0.475377 -1.40182 -0.16157
156 1 63.55 28.9355 12.6751 1.77147 -0.617829 0.459493 -0.389023
191 1 63.55 27.1113 14.4734 1.78274 0.546344 0.250426 -0.594468
193 1 63.55 28.9345 14.4612 -0.0213565 -0.479615 0.819572 -0.139118
154 1 63.55 30.7232 12.7029 -0.0786424 -0.341579 0.293781 0.750131
195 1 63.55 30.7454 14.4489 1.78981 -0.36302 0.634277 -0.427309
158 1 63.55 34.2866 12.6169 0.00703702 0.430627 0.656446 -0.107647
160 1 63.55 32.4949 12.6328 1.78785 0.783415 1.09597 -1.2125
197 1 63.55 32.5638 14.4472 -0.0446684 -1.57799 -0.384024 0.0631853
199 1 63.55 34.3036 14.4208 1.74323 -0.393466 0.398324 0.203867
162 1 63.55 1.79827 16.2698 -0.0635477 -0.698293 0.509321 0.81789
164 1 63.55 0.0192264 16.2543 1.74331 -0.474644 0.0126998 -0.301957
168 1 63.55 3.6518 16.2393 1.71308 0.0742448 2.01268 0.448342
166 1 63.55 5.47442 16.2409 -0.0880479 0.129886 -0.272352 0.674866
172 1 63.55 7.2672 16.2626 1.72675 -0.618023 0.98144 0.292679
170 1 63.55 9.09953 16.2832 -0.0835345 -0.923051 -0.265618 0.664875
176 1 63.55 10.855 16.2661 1.76426 -0.834968 -0.425254 0.549919
174 1 63.55 12.6534 16.2559 -0.0764427 -0.597018 0.325762 -0.62709
180 1 63.55 14.4447 16.2228 1.78315 -0.0120329 0.607426 -1.2561
178 1 63.55 16.2542 16.2565 -0.0531936 -0.0468058 -0.3999 -0.340654
182 1 63.55 19.8671 16.2318 -0.0506948 0.670535 -0.22203 0.163561
184 1 63.55 18.0759 16.2747 1.71424 -0.93702 0.0629812 0.114788
188 1 63.55 21.6789 16.2986 1.78902 0.839339 1.61461 0.125553
186 1 63.55 23.4825 16.2854 -0.052022 0.389722 -0.135271 0.432208
192 1 63.55 25.3127 16.2858 1.77069 -0.456571 0.128472 0.234554
190 1 63.55 27.0951 16.3098 -0.0496252 -0.746505 -0.200486 -0.568193
196 1 63.55 28.912 16.2355 1.77049 0.833865 0.127507 0.42236
194 1 63.55 30.7542 16.2453 -0.0436398 0.991152 -0.464983 -0.796
198 1 63.55 34.3266 16.2379 -0.0430128 -1.03062 0.156204 -1.41863
200 1 63.55 32.5421 16.2534 1.77996 0.825763 0.0414391 0.0138599
201 1 63.55 0.0097401 18.1334 -0.0918474 -1.34591 0.285332 0.297164
202 1 63.55 1.84851 19.9255 -0.0380347 1.22791 -0.355233 0.119241
203 1 63.55 1.8502 18.0811 1.77075 0.824182 -0.905265 1.62471
204 1 63.55 0.0661247 19.8639 1.73963 0.039945 0.425441 0.581199
205 1 63.55 3.61582 18.0326 -0.0890903 0.422133 0.0453121 -1.02108
208 1 63.55 3.63344 19.853 1.75293 -0.526246 0.0815553 0.250697
241 1 63.55 0.0185033 21.712 -0.0338052 -0.309645 0.820748 0.156841
243 1 63.55 1.83656 21.6795 1.75801 0.180283 -0.147766 1.0049
245 1 63.55 3.64268 21.7236 -0.0888953 0.178553 -0.0295206 -0.257549
206 1 63.55 5.45872 19.8318 -0.0779127 0.113948 0.631096 -1.26384
207 1 63.55 5.44253 18.0406 1.74058 -0.961066 0.0242125 1.29059
209 1 63.55 7.27052 18.0373 -0.0366476 0.828238 0.101299 -0.652205
212 1 63.55 7.18827 19.8746 1.74284 0.802835 -0.471936 -1.28
247 1 63.55 5.39121 21.7127 1.79584 -0.148802 -0.32204 1.11118
249 1 63.55 7.20622 21.689 -0.0137789 0.086799 -0.306869 -0.264686
210 1 63.55 9.00008 19.9561 -0.0534721 -0.102287 -0.550446 -0.488745
211 1 63.55 9.03685 18.1213 1.71298 0.401979 0.110536 -0.690998
213 1 63.55 10.8588 18.1213 -0.0701699 0.395012 0.00861387 -0.792366
216 1 63.55 10.8705 19.8724 1.79919 0.205708 -1.04757 -0.98698
251 1 63.55 8.97696 21.6463 1.78501 -0.636734 -0.203522 0.499671
253 1 63.55 10.8481 21.6155 -0.0268333 -0.0602503 0.781122 -0.818135
214 1 63.55 12.7028 19.8824 -0.0592834 -0.47333 0.130003 -0.584482
215 1 63.55 12.6831 18.0807 1.77688 0.373735 -0.0472588 0.0986937
217 1 63.55 14.4494 18.0118 -0.0509338 -1.50304 0.364573 0.236886
220 1 63.55 14.4657 19.9182 1.7198 -0.188408 0.159979 -0.369655
255 1 63.55 12.6637 21.6608 1.72666 -0.402097 -0.162692 -0.901338
257 1 63.55 14.4725 21.7256 -0.107157 -0.494055 0.478228 0.706985
218 1 63.55 16.2491 19.8651 -0.114285 0.64416 -0.912754 0.533705
219 1 63.55 16.2169 18.066 1.71773 0.419401 -0.154596 -0.148576
259 1 63.55 16.2698 21.7506 1.69449 0.849439 1.25525 0.101048
221 1 63.55 18.0554 18.0887 -0.09437 -0.769898 0.953968 -0.795609
222 1 63.55 19.9245 19.9202 -0.159375 0.535256 -0.178327 -0.522016
223 1 63.55 19.8533 18.134 1.71226 1.01115 0.110863 -1.07223
224 1 63.55 18.0234 19.9164 1.65677 0.428723 0.595113 -0.114309
225 1 63.55 21.6651 18.079 -0.0550165 -1.02096 -0.700834 0.310654
228 1 63.55 21.6927 19.9029 1.70608 -1.32612 -0.0746519 -0.0930769
261 1 63.55 18.0839 21.7387 -0.0863577 -0.853891 -0.508159 1.2194
263 1 63.55 19.8608 21.7331 1.7181 -0.673308 0.150744 -0.145012
265 1 63.55 21.6572 21.6879 -0.0720117 -1.81896 0.27382 0.353759
226 1 63.55 23.5098 19.9072 -0.135034 0.332569 0.397451 0.488056
227 1 63.55 23.4396 18.0517 1.74088 0.210152 -0.881279 -0.72806
229 1 63.55 25.3063 18.1008 -0.0243294 -0.293257 -1.22159 0.816316
232 1 63.55 25.298 19.8938 1.68152 -0.804519 -0.567315 0.670812
267 1 63.55 23.529 21.6741 1.70252 -0.540092 -0.730411 -0.164991
269 1 63.55 25.3463 21.7127 -0.102596 -0.797118 -1.16452 1.46909
230 1 63.55 27.1819 19.9306 -0.0902909 -0.115315 -0.505255 -0.448251
231 1 63.55 27.1055 18.0941 1.78997 -0.814914 0.0590614 -0.109725
233 1 63.55 29.0097 18.0851 -0.0287158 1.03317 -0.15875 1.1459
236 1 63.55 28.9369 19.889 1.74135 0.772914 0.959187 -0.206596
271 1 63.55 27.1548 21.6937 1.7132 -0.00619003 -1.48959 0.127262
273 1 63.55 28.9864 21.7723 -0.0118912 -0.846092 -0.488868 0.866062
234 1 63.55 30.7766 19.9126 -0.0219987 -0.828904 0.0741385 -0.658599
235 1 63.55 30.7545 18.0625 1.80723 0.115943 -0.529388 0.488376
275 1 63.55 30.7868 21.6851 1.76908 -1.16766 0.0732425 0.347556
237 1 63.55 32.6072 18.0449 -0.0124531 0.991812 -0.0538769 -0.840271
238 1 63.55 34.4266 19.9034 0.0363933 -1.09913 -0.696012 0.96054
239 1 63.55 34.4173 18.046 1.76336 0.276887 0.0444938 -0.468891
240 1 63.55 32.5478 19.8642 1.75603 0.411745 1.44286 -0.443667
277 1 63.55 32.5779 21.7324 -0.000455638 0.0592969 -1.31442 0.0544901
279 1 63.55 34.4099 21.7607 1.77649 0.215714 1.55374 -1.06959
242 1 63.55 1.874 23.4585 -0.0331868 -0.493763 1.42004 -0.412742
244 1 63.55 0.0275327 23.5428 1.75415 0.44713 0.0362286 -0.809761
248 1 63.55 3.64902 23.5051 1.76984 1.85616 0.935424 0.51364
281 1 63.55 0.0323935 25.3597 -0.0526294 0.0345057 1.23739 -0.0686889
283 1 63.55 1.8189 25.3093 1.76055 -0.278225 0.170578 -0.648255
285 1 63.55 3.63634 25.3199 -0.0693266 0.892876 -0.730923 -0.306925
246 1 63.55 5.43241 23.5165 -0.0848785 1.02297 -2.03224 0.264454
252 1 63.55 7.2057 23.5369 1.74779 0.43662 1.23344 -0.195876
287 1 63.55 5.4083 25.3271 1.72978 -0.2719 1.10783 1.18808
289 1 63.55 7.20133 25.3136 -0.0676043 0.362273 1.23087 0.264728
250 1 63.55 9.02333 23.4824 -0.0746993 -0.759119 2.23594 1.06533
256 1 63.55 10.8647 23.4283 1.69823 -0.968561 1.37201 1.15586
291 1 63.55 8.9718 25.2641 1.72272 -0.126864 0.540445 -0.456477
293 1 63.55 10.8592 25.2839 -0.072801 -0.511671 -0.293559 -1.50497
254 1 63.55 12.6523 23.5157 -0.0942404 0.943289 1.39147 -0.270502
260 1 63.55 14.4534 23.4932 1.73639 0.374476 -0.928843 -0.492885
295 1 63.55 12.6528 25.2777 1.72572 -1.09136 1.01547 -0.39518
297 1 63.55 14.4663 25.3301 -0.138269 -0.176038 0.377531 -0.629424
258 1 63.55 16.2696 23.4971 -0.150768 1.0281 1.94416 -0.944126
299 1 63.55 16.2595 25.3437 1.70697 0.0953844 0.324683 -0.755194
262 1 63.55 19.8877 23.4713 -0.0848317 1.04984 0.735121 0.745663
264 1 63.55 18.0802 23.5269 1.69686 1.41132 -0.710803 -0.715923
268 1 63.55 21.7164 23.5211 1.73126 -0.385823 0.222348 -1.69581
301 1 63.55 18.0481 25.3093 -0.119536 -0.496823 -0.2388 -0.137353
303 1 63.55 19.8797 25.3217 1.70911 1.16928 0.959852 1.04332
305 1 63.55 21.7224 25.3421 -0.0772616 -0.243892 -0.372871 -1.5549
266 1 63.55 23.4988 23.4932 -0.0820568 0.815437 0.901866 -0.03903
272 1 63.55 25.3269 23.4726 1.70341 -1.13183 0.847668 0.56841
307 1 63.55 23.4942 25.3249 1.7493 -1.56209 -0.5604 -0.614511
309 1 63.55 25.2811 25.3461 -0.0901725 -0.711981 -0.725831 0.0533273
270 1 63.55 27.1349 23.5223 -0.0780253 -0.062945 1.45801 -0.0745645
276 1 63.55 28.9606 23.5401 1.7379 -0.0719501 0.0522581 0.720614
311 1 63.55 27.1645 25.2767 1.71957 0.540478 -0.843145 -0.29683
313 1 63.55 28.9852 25.3379 -0.0905703 -1.20072 0.382416 0.573729
274 1 63.55 30.7901 23.5717 -0.0242487 -1.00863 0.413596 -0.0765614
315 1 63.55 30.7793 25.3933 1.75223 -0.323709 0.326049 -0.628074
278 1 63.55 34.3994 23.536 -0.03247 -0.258765 -1.24923 -0.532118
280 1 63.55 32.5652 23.5591 1.78968 1.16598 -1.57257 -0.806678
317 1 63.55 32.5917 25.3431 -0.0580993 -0.61247 0.236748 -0.420084
319 1 63.55 34.3458 25.3462 1.79801 -0.440746 0.689937 0.343582
282 1 63.55 1.81966 27.1383 -0.0273429 0.126478 -0.035461 1.45831
284 1 63.55 0.0258975 27.0913 1.75044 -0.0522367 1.10591 -0.0845273
288 1 63.55 3.61564 27.1063 1.76292 -0.655369 0.583798 -0.846427
321 1 63.55 0.0532711 28.9999 -0.0287725 0.17725 0.860326 -0.664903
323 1 63.55 1.83468 28.9253 1.74525 0.619621 0.576834 1.68173
325 1 63.55 3.64131 28.9872 -0.0201778 1.10558 -0.0203233 -0.278806
286 1 63.55 5.43592 27.1256 -0.0544166 -0.325437 0.659642 -0.165983
292 1 63.55 7.21679 27.1087 1.72509 0.833414 1.15369 0.304328
327 1 63.55 5.44067 28.9158 1.75505 1.00471 -0.626628 -0.168813
329 1 63.55 7.24973 29.0185 -0.0531109 -1.10155 -0.902163 -0.339852
290 1 63.55 9.07606 27.1308 -0.0526988 0.639083 -0.0966475 -1.41461
296 1 63.55 10.8964 27.1505 1.69386 -0.268787 -0.516208 -1.00377
331 1 63.55 9.0075 28.9202 1.75856 0.840601 -0.0958319 -0.399212
333 1 63.55 10.8405 28.959 -0.104431 0.182605 -0.537631 -0.841775
294 1 63.55 12.6573 27.1195 -0.0970168 0.0523843 -1.99682 0.20685
300 1 63.55 14.456 27.1032 1.70033 -0.00868363 -0.0234881 -0.310409
335 1 63.55 12.671 28.945 1.747 0.322176 0.40808 -1.32133
337 1 63.55 14.4482 28.954 -0.0909057 0.401436 0.123741 -0.513489
298 1 63.55 16.2314 27.1732 -0.115771 -0.23138 -1.13671 0.337824
339 1 63.55 16.2736 28.9191 1.6804 0.133094 0.461158 0.0930705
302 1 63.55 19.9358 27.1208 -0.0902421 -0.284194 -0.637884 -0.939921
304 1 63.55 18.0924 27.1435 1.65591 1.04577 -0.509057 0.351586
308 1 63.55 21.7571 27.1606 1.76167 0.829992 -0.361313 -1.1069
341 1 63.55 18.1022 28.9809 -0.119969 -1.10058 0.613539 -0.0192368
343 1 63.55 19.8905 28.9258 1.72074 -0.659467 -1.3005 0.103389
345 1 63.55 21.6991 28.9369 -0.0750161 -0.994273 -0.527801 0.0930347
306 1 63.55 23.505 27.1645 -0.10612 -0.43842 -0.975525 -0.843921
312 1 63.55 25.285 27.1159 1.78179 0.309442 0.233569 -0.303647
347 1 63.55 23.5132 28.9275 1.76342 -0.053008 -0.79311 -1.07119
349 1 63.55 25.2923 28.9262 -0.0467772 0.429414 -0.318209 -0.334266
310 1 63.55 27.1096 27.1087 -0.0199441 0.11337 0.201089 0.353458
316 1 63.55 28.9487 27.173 1.76737 -0.857978 0.942832 -0.310335
351 1 63.55 27.1406 28.9731 1.76157 0.425215 0.826359 0.347742
353 1 63.55 28.9401 28.896 -0.0910142 -1.05074 0.533136 1.13641
314 1 63.55 30.7802 27.1154 -0.00448314 -0.200223 -0.318758 -0.0323177
355 1 63.55 30.7219 28.9448 1.7675 1.01258 -0.676636 0.510078
318 1 63.55 34.3938 27.1752 -0.0758181 0.109363 1.48373 1.79902
320 1 63.55 32.5727 27.1375 1.77076 0.796165 1.45791 0.907313
357 1 63.55 32.5433 28.916 -0.0315427 2.23905 0.141853 -0.82224
359 1 63.55 34.436 28.8818 1.75217 0.130836 -0.489472 0.224545
322 1 63.55 1.84378 30.8161 -0.0835676 0.674076 0.239513 -0.578868
324 1 63.55 0.0673557 30.7383 1.8008 0.197352 -1.55738 -0.117403
328 1 63.55 3.61516 30.8093 1.75308 -0.914104 -0.248032 0.784292
326 1 63.55 5.40542 30.7599 -0.0308167 0.177184 -0.32785 0.0556457
332 1 63.55 7.2606 30.765 1.72334 -0.938013 -0.127182 -0.193736
330 1 63.55 9.03135 30.7531 -0.0714787 -0.29113 0.574667 1.66942
336 1 63.55 10.8593 30.695 1.70549 -0.58878 -1.52612 -0.733692
334 1 63.55 12.6846 30.7732 -0.0730354 0.486415 0.822521 -0.42188
340 1 63.55 14.4762 30.724 1.78332 -0.223633 -0.281023 -0.816015
338 1 63.55 16.2297 30.7704 -0.0767612 -1.3539 -0.409518 0.0891432
342 1 63.55 19.8913 30.7502 -0.0549225 -0.151469 0.6853 0.0218535
344 1 63.55 18.0961 30.7164 1.7291 1.85495 -0.058669 -0.157363
348 1 63.55 21.7213 30.7527 1.72454 -0.415454 1.3627 0.867518
346 1 63.55 23.5323 30.7321 -0.0497746 -0.0683046 0.532401 -1.29849
352 1 63.55 25.3006 30.7704 1.79954 -0.376772 0.82511 -0.376691
350 1 63.55 27.0995 30.7289 0.00980882 -1.89946 -0.934132 0.394667
356 1 63.55 28.9186 30.7521 1.74717 0.305441 -0.0874489 0.115618
354 1 63.55 30.7086 30.7088 -0.0282653 -0.251 -0.249491 0.387284
358 1 63.55 34.3862 30.7929 -0.00062448 0.961762 1.14785 0.954296
360 1 63.55 32.5258 30.7395 1.72483 -1.58472 -0.36251 -0.92997
361 1 63.55 -0.0212352 32.5747 -0.0361959 -0.230132 -0.402041 0.609749
362 1 63.55 1.83436 34.3833 -0.0493822 -0.307997 1.29243 -0.0679542
363 1 63.55 1.80395 32.6156 1.78316 0.815701 0.451216 -0.193555
364 1 63.55 -0.0229686 34.3432 1.77047 -1.45762 0.418308 -0.194104
365 1 63.55 3.66926 32.584 -0.0653183 0.556978 -0.262488 1.21171
368 1 63.55 3.63594 34.3568 1.78767 0.109425 -0.171622 -0.549727
366 1 63.55 5.47094 34.3667 -0.037126 -0.0645011 -0.401107 -0.97994
367 1 63.55 5.45983 32.5544 1.77388 0.226544 -0.0781399 -0.46146
369 1 63.55 7.21589 32.5052 -0.0635799 -0.482252 0.350008 0.12427
372 1 63.55 7.20594 34.4223 1.76262 -0.0997799 -1.61649 0.744579
370 1 63.55 9.02895 34.3361 -0.0120637 -1.0266 0.232789 0.0837176
371 1 63.55 9.07406 32.5587 1.72649 -1.48496 -0.934696 0.173368
373 1 63.55 10.8586 32.5477 -0.044539 -0.0637287 0.231617 0.118927
376 1 63.55 10.8774 34.3651 1.76541 0.533852 0.73576 0.666605
374 1 63.55 12.6411 34.4082 -0.0733418 1.03418 -1.09352 -0.415552
375 1 63.55 12.6719 32.5309 1.76857 -0.0165256 0.334946 0.39303
377 1 63.55 14.471 32.5777 -0.0671381 0.461825 0.486092 -1.2955
380 1 63.55 14.4687 34.3655 1.76061 1.40359 0.13845 -0.714387
378 1 63.55 16.2847 34.3371 -0.0606863 -0.606792 0.403872 -0.00909308
379 1 63.55 16.2736 32.5602 1.78662 -0.411835 0.618557 -1.15398
381 1 63.55 18.0597 32.5674 -0.0560759 -1.09318 -1.0912 -1.69668
382 1 63.55 19.9063 34.3513 -0.0725791 0.392934 -0.652247 -0.379627
383 1 63.55 19.9373 32.5658 1.76887 0.726863 -0.279934 -0.815064
384 1 63.55 18.0987 34.4356 1.73297 -0.156149 0.24143 0.599721
385 1 63.55 21.7514 32.5466 -0.0991751 1.07956 -0.658404 -0.739832
388 1 63.55 21.6775 34.3388 1.82923 -0.324744 0.234094 -0.311004
386 1 63.55 23.5081 34.3411 -0.0429585 -1.09607 2.21463 2.10631
387 1 63.55 23.4956 32.5216 1.79273 0.911659 0.10806 -0.463934
389 1 63.55 25.2729 32.5102 -0.00936325 -0.077733 -0.584437 0.133539
392 1 63.55 25.3096 34.3422 1.76003 -0.337134 -0.870954 0.125036
390 1 63.55 27.1532 34.366 -0.0653889 0.40148 0.693147 0.96624
391 1 63.55 27.1362 32.5522 1.73533 0.035951 -0.234072 -1.02741
393 1 63.55 28.9152 32.5391 -0.0678362 0.603455 -1.15569 -0.350055
396 1 63.55 28.915 34.4149 1.69524 0.339892 -1.01602 0.657918
394 1 63.55 30.7438 34.3641 -0.083407 -0.990203 -0.0200624 0.0437571
395 1 63.55 30.7164 32.5801 1.73835 0.586666 -0.503103 0.855498
397 1 63.55 32.5121 32.5616 -0.0742985 -0.00200305 0.737614 0.299736
398 1 63.55 34.3409 34.3767 -0.0679229 0.0343891 -1.21591 -0.22333
399 1 63.55 34.3364 32.5495 1.7846 -1.42145 0.0628552 -1.49386
400 1 63.55 32.5418 34.3685 1.78645 -0.272817 0.812365 0.915158
401 1 63.55 -0.051954 -0.00489237 3.52965 -1.25916 -0.670739 -0.403221
402 1 63.55 1.72388 1.86113 3.50786 1.24028 -0.0113147 -0.670807
403 1 63.55 1.8033 0.0157566 5.38967 0.197513 -1.04194 0.255352
404 1 63.55 0.0111346 1.77508 5.34565 0.0814531 0.429082 -0.062843
405 1 63.55 3.54587 0.0941515 3.59908 -0.861051 -0.186542 -0.711673
408 1 63.55 3.59047 1.88904 5.33913 0.000763094 -0.305353 -0.512324
441 1 63.55 -0.0228883 3.63905 3.57294 -0.365285 0.9165 -0.0227627
443 1 63.55 1.76958 3.60915 5.33367 -0.582327 0.429147 0.377486
445 1 63.55 3.6441 3.68271 3.56097 -0.226924 -0.281186 0.058874
406 1 63.55 5.40516 1.82167 3.55848 -0.12329 0.336615 0.0356874
407 1 63.55 5.41471 0.0330467 5.34113 0.892039 -0.187179 0.708739
409 1 63.55 7.21571 0.0530252 3.52835 1.16036 0.412676 -0.0494011
412 1 63.55 7.26905 1.82147 5.30953 0.142263 0.300689 -0.0241763
447 1 63.55 5.39341 3.67537 5.34081 -0.0628336 -0.632183 -0.508072
449 1 63.55 7.24829 3.60697 3.54497 0.702792 -0.0781924 0.454987
410 1 63.55 9.05921 1.83927 3.55751 0.0358727 -1.29058 1.11098
411 1 63.55 9.04663 0.0130078 5.30929 -0.716304 0.145649 0.382975
413 1 63.55 10.8568 0.00501491 3.5304 1.27301 -0.430147 0.629907
416 1 63.55 10.8929 1.7836 5.40061 0.0897697 0.708067 -1.32252
451 1 63.55 9.0852 3.61394 5.42264 -0.26941 -0.322316 -1.14488
453 1 63.55 10.8682 3.63147 3.59808 0.455352 -0.603161 1.11527
414 1 63.55 12.6657 1.83861 3.56233 0.686576 0.12507 -1.81956
415 1 63.55 12.6989 0.0250119 5.343 0.377472 0.231958 0.388819
417 1 63.55 14.5063 -0.0020043 3.52975 0.611667 -1.49585 0.210822
420 1 63.55 14.5033 1.83849 5.37169 -0.936194 0.0233207 -1.68342
455 1 63.55 12.7 3.64296 5.35798 0.788185 -1.52705 0.432307
457 1 63.55 14.4665 3.63023 3.58704 0.116457 0.0980716 1.10552
418 1 63.55 16.295 1.80984 3.60421 -0.968096 0.226926 0.110234
419 1 63.55 16.3024 -0.0100016 5.37001 -0.336116 0.384329 0.677252
459 1 63.55 16.2958 3.66411 5.40973 0.495244 0.803527 0.870438
421 1 63.55 18.0646 0.0559553 3.5489 0.489002 -1.50658 -0.86191
422 1 63.55 19.8872 1.8396 3.58083 0.10281 -0.686937 -0.583136
423 1 63.55 19.9135 0.0237275 5.38154 -0.833271 0.0915157 0.187508
424 1 63.55 18.0745 1.82986 5.41745 -0.4611 -0.417699 -0.26296
425 1 63.55 21.7325 0.0125617 3.57679 -0.962816 -0.101539 -1.12601
428 1 63.55 21.6488 1.88052 5.37998 -0.0366771 0.196973 0.201234
461 1 63.55 18.0564 3.63095 3.57531 0.0604331 -0.32998 0.652855
463 1 63.55 19.8637 3.65712 5.37118 -0.0320045 0.932289 0.195866
465 1 63.55 21.6533 3.59321 3.57558 -0.430505 -0.548723 0.974088
426 1 63.55 23.4926 1.84661 3.6018 -0.15056 -0.204734 0.988896
427 1 63.55 23.5022 0.00992457 5.38526 -1.03269 1.92019 -0.343968
429 1 63.55 25.2996 0.00529689 3.54855 -0.532287 0.990496 -0.679045
432 1 63.55 25.3689 1.77928 5.38632 1.38238 -0.188263 0.603651
467 1 63.55 23.5596 3.63338 5.38141 0.890904 -0.111734 -0.255428
469 1 63.55 25.333 3.58012 3.56217 -0.42397 -1.08121 0.179829
430 1 63.55 27.1571 1.85305 3.5051 -0.153258 -0.482004 -0.843772
431 1 63.55 27.2013 0.0247285 5.30641 -0.381796 1.00419 -0.384203
433 1 63.55 28.9222 0.00759599 3.56535 -0.982013 0.570646 0.46573
436 1 63.55 28.9466 1.84091 5.40122 -0.99844 -0.91267 -0.360719
471 1 63.55 27.1143 3.58906 5.36536 0.803563 0.176245 0.252871