ITEM: TIMESTEP
3500
ITEM: NUMBER OF ATOMS
20000
ITEM: BOX BOUNDS pp pp pp
-1.4876948359869857e-02 3.6164876948359975e+01
-1.6648860053116721e-02 3.6166648860052973e+01
-5.9303406547925874e-02 1.8080930340654868e+02
ITEM: ATOMS id type mass x y z vx vy vz
1 1 63.55 -0.0161239 -0.0568326 -0.0795618 -0.712511 0.0246644 0.847475
2 1 63.55 1.79735 1.77999 -0.0515669 -1.07697 1.94473 -0.568587
3 1 63.55 1.78366 -0.0592348 1.75182 -0.282177 0.220489 0.0597342
4 1 63.55 0.0142806 1.77271 1.75328 -0.0150882 -0.170018 0.445447
5 1 63.55 3.62657 -0.00605832 -0.110082 -0.620543 0.800992 0.845189
8 1 63.55 3.60024 1.77522 1.70284 -0.705242 -0.0616824 1.01002
41 1 63.55 0.0920483 3.63226 -0.025917 -0.224638 -0.0871972 0.06433
43 1 63.55 1.80347 3.61568 1.83965 -0.470227 -1.35785 -0.275152
45 1 63.55 3.55913 3.61956 -0.0472016 -1.30953 -0.495097 0.947851
6 1 63.55 5.40155 1.7884 -0.0558811 -0.0911693 0.0607181 2.56585
7 1 63.55 5.44959 0.0251548 1.76416 0.146466 -0.178595 -0.840433
9 1 63.55 7.23487 -0.0364587 -0.120353 -1.44088 1.171 0.742221
12 1 63.55 7.21306 1.75945 1.76885 1.10437 0.662432 -0.272658
47 1 63.55 5.38898 3.57742 1.76448 0.541314 -0.586835 -0.36669
49 1 63.55 7.20714 3.61226 -0.0739026 -0.0714258 0.017057 -0.371043
10 1 63.55 9.05127 1.79364 -0.0631353 0.153707 -0.357704 -0.356943
11 1 63.55 9.00266 -0.0138375 1.73422 -0.310513 -0.244588 1.1244
13 1 63.55 10.8425 -0.0234524 -0.0434279 -1.82877 0.516053 -0.208778
16 1 63.55 10.8492 1.85959 1.73073 0.309197 -1.50266 -0.291393
51 1 63.55 9.02308 3.61392 1.74365 0.532562 -0.69489 -1.00218
53 1 63.55 10.8287 3.61244 -0.0901078 -0.183403 0.0757445 -1.42386
14 1 63.55 12.6358 1.75811 -0.0921232 -0.406144 0.633524 -0.751838
15 1 63.55 12.6335 -0.0296421 1.75493 0.272299 -0.0973161 -1.29557
17 1 63.55 14.4035 -0.0116738 -0.090018 -0.181886 0.0277173 -0.375406
20 1 63.55 14.4539 1.81764 1.7326 1.32225 -0.872695 2.52094
55 1 63.55 12.6512 3.59097 1.69937 -1.9795 0.646855 1.03381
57 1 63.55 14.4128 3.63723 -0.0730225 -0.60858 -1.19687 1.16521
18 1 63.55 16.256 1.78714 -0.0829108 0.574802 0.612853 -0.0225364
19 1 63.55 16.2334 -0.0195529 1.7405 1.0572 -0.68414 -1.52264
59 1 63.55 16.2153 3.58514 1.69299 -0.963105 -0.271459 -0.777216
21 1 63.55 18.0731 -0.0167193 -0.0687892 0.130915 0.755503 0.0139004
22 1 63.55 19.8911 1.83402 -0.0626814 0.272388 0.470616 -0.745548
23 1 63.55 19.8805 0.0231044 1.7296 -0.908998 -0.50541 -0.721309
24 1 63.55 18.0878 1.77621 1.7155 -0.840176 -0.782743 -0.676434
25 1 63.55 21.7148 -0.0262112 -0.0503954 0.727041 1.78441 -0.168625
28 1 63.55 21.6378 1.86094 1.72535 1.35794 0.0642085 -0.411194
61 1 63.55 18.0891 3.6474 -0.0149543 -0.0772511 0.553148 -1.05911
63 1 63.55 19.8847 3.63583 1.74891 -0.133697 -1.2582 -1.23403
65 1 63.55 21.6917 3.55541 -0.113692 0.52894 -0.287101 -0.408869
26 1 63.55 23.553 1.77622 -0.0594897 -1.92542 -0.00974458 0.357742
27 1 63.55 23.4968 -0.0175634 1.7394 -0.237565 0.543454 1.08938
29 1 63.55 25.3068 -0.0312066 -0.0200248 0.563503 -0.941478 -0.18133
32 1 63.55 25.3046 1.79691 1.74758 0.242667 0.0565647 -0.807594
67 1 63.55 23.4803 3.61718 1.71222 -1.37175 -0.240928 -0.119795
69 1 63.55 25.2675 3.63456 -0.0804699 -0.345386 0.639522 -0.827166
30 1 63.55 27.1423 1.79489 -0.0359427 -0.283792 -0.00312035 -0.726255
31 1 63.55 27.102 0.0277797 1.76582 -0.00844592 -0.0549336 -2.35689
33 1 63.55 28.8842 0.00651017 -0.0460063 -0.779051 0.0815784 -0.173914
36 1 63.55 28.9175 1.76101 1.77502 -0.121067 -1.84138 -0.657993
71 1 63.55 27.1054 3.60355 1.7646 0.454718 0.00550494 0.939754
73 1 63.55 28.8899 3.62918 -0.0222364 1.09265 -0.968613 -0.283912
34 1 63.55 30.7086 1.79329 -0.0404632 -1.08833 0.274874 1.85328
35 1 63.55 30.7788 -0.0636171 1.71185 -1.15462 -1.2842 -0.899332
75 1 63.55 30.7725 3.56983 1.76058 -0.638137 1.66988 -2.00971
37 1 63.55 32.5652 -0.0333732 -0.0610919 -1.63184 0.379367 0.176089
38 1 63.55 34.3679 1.76993 -0.102232 -0.56169 0.257916 -1.17536
39 1 63.55 34.3395 -0.0321821 1.71597 -0.844008 -0.778044 -0.463172
40 1 63.55 32.5759 1.81199 1.7529 -0.414257 0.351512 -0.538446
77 1 63.55 32.5359 3.56529 -0.0489778 0.411524 -1.23472 -0.630719
79 1 63.55 34.4017 3.55927 1.70112 -0.756526 0.150252 0.161849
42 1 63.55 1.81298 5.49719 -0.0656945 -0.489688 -0.202124 0.0125703
44 1 63.55 -0.0122861 5.41889 1.75389 0.686025 0.287737 0.674055
48 1 63.55 3.54523 5.41488 1.77406 0.710562 -0.546282 0.384715
81 1 63.55 -0.0427945 7.26501 -0.0525596 1.35074 0.111455 0.442281
83 1 63.55 1.76265 7.30274 1.81359 1.29786 -0.924747 0.494691
85 1 63.55 3.55341 7.23847 -0.103269 -0.672379 -0.208331 -0.265334
46 1 63.55 5.36872 5.39719 -0.0880107 -1.30267 0.0112724 0.0917926
52 1 63.55 7.20333 5.44059 1.74769 0.743305 -0.92547 -0.726387
87 1 63.55 5.33968 7.25074 1.67222 0.332018 1.97478 0.365811
89 1 63.55 7.22474 7.17858 -0.0298718 0.658124 -0.0230503 -0.348349
50 1 63.55 9.04787 5.38642 -0.0304373 0.740186 -0.0332287 -0.149745
56 1 63.55 10.8777 5.35658 1.75871 -0.143712 -1.27595 0.876379
91 1 63.55 9.02229 7.21141 1.79021 -0.163904 0.713788 0.3289
93 1 63.55 10.8829 7.22247 -0.0627786 -0.361823 -0.370806 -0.325485
54 1 63.55 12.59 5.38544 -0.08038 -0.895811 0.713936 -0.134565
60 1 63.55 14.4148 5.42239 1.71595 -0.597112 0.14796 -0.97653
95 1 63.55 12.5872 7.1979 1.71769 0.558843 1.0982 1.01793
97 1 63.55 14.3778 7.20396 -0.083814 -0.322472 -0.206383 0.805054
58 1 63.55 16.2586 5.43498 -0.0643245 -1.19733 -0.493395 0.157567
99 1 63.55 16.2265 7.20293 1.71407 -0.643155 0.213785 -0.0340924
62 1 63.55 19.9158 5.48815 -0.0723328 0.27816 -0.222847 -2.10271
64 1 63.55 18.058 5.42879 1.71529 1.07046 1.76911 0.30571
68 1 63.55 21.6975 5.39591 1.66841 -0.299283 2.22299 0.0182018
101 1 63.55 18.0934 7.23061 -0.0533475 1.18709 0.520829 -0.613565
103 1 63.55 19.9159 7.2143 1.71957 -1.16248 -1.16193 0.435766
105 1 63.55 21.6893 7.24341 -0.111957 0.0901774 -0.273879 -0.451399
66 1 63.55 23.5076 5.41661 -0.0542758 0.585602 0.130128 1.96092
72 1 63.55 25.2985 5.4286 1.72062 0.325008 0.275166 -1.2624
107 1 63.55 23.4729 7.25852 1.66763 0.0199427 0.322774 -0.988061
109 1 63.55 25.2986 7.23695 -0.100258 -0.807707 0.129334 0.486805
70 1 63.55 27.091 5.43002 -0.0782436 0.297961 0.839978 -1.37649
76 1 63.55 28.9105 5.41173 1.76341 0.629751 0.201371 0.236744
111 1 63.55 27.0824 7.18579 1.68302 1.55123 0.53548 -0.163297
113 1 63.55 28.9175 7.21456 -0.0443998 0.720915 0.462108 0.863641
74 1 63.55 30.6977 5.40637 -0.0440949 -0.474473 0.609125 -0.0418083
115 1 63.55 30.7536 7.21525 1.78487 -1.61159 0.0714371 -0.302216
78 1 63.55 34.3293 5.44871 -0.063388 -0.209361 -0.765067 -0.672395
80 1 63.55 32.5841 5.39128 1.70322 -1.4155 -0.801402 -0.0242669
117 1 63.55 32.5197 7.24205 -0.0897226 1.95685 1.13475 0.793567
119 1 63.55 34.3404 7.25346 1.74879 -0.116658 -1.23659 0.690031
82 1 63.55 1.77128 9.08513 -0.00181508 0.37425 0.467779 -0.152556
84 1 63.55 -0.0842825 9.05305 1.81387 0.708169 0.294403 0.491137
88 1 63.55 3.58857 9.06778 1.72568 0.188965 -0.336714 -0.462495
121 1 63.55 -0.043089 10.866 0.0110531 -0.289441 -0.593362 0.639404
123 1 63.55 1.75186 10.8378 1.78857 0.524676 -0.0336333 -0.454783
125 1 63.55 3.62225 10.8539 -0.0609345 0.458616 -0.825471 -1.04713
86 1 63.55 5.41712 8.98955 -0.0997051 0.429063 -0.183973 0.565919
92 1 63.55 7.20601 9.01306 1.76518 0.975647 0.126797 -0.402842
127 1 63.55 5.43244 10.8441 1.74206 0.11703 0.174139 0.687991
129 1 63.55 7.2279 10.7906 0.00535901 1.05954 0.316746 -0.789153
90 1 63.55 9.01189 8.97926 0.00311233 -1.14147 -0.363584 0.913854
96 1 63.55 10.8764 9.02267 1.66765 -0.0178302 0.260477 -0.133963
131 1 63.55 9.06803 10.8214 1.77924 -0.447439 -1.17369 0.586312
133 1 63.55 10.8393 10.7691 -0.0656963 0.548489 1.20252 1.51884
94 1 63.55 12.7101 9.07402 -0.115697 -0.663944 -0.0206034 0.53812
100 1 63.55 14.4003 8.93673 1.76149 1.58045 0.0701513 0.81198
135 1 63.55 12.6578 10.7567 1.72967 0.0105866 -1.13178 -0.405441
137 1 63.55 14.4457 10.8399 -0.0751918 -0.536922 1.2023 0.525186
98 1 63.55 16.1986 9.04981 -0.105176 -1.81898 -1.45751 -1.7175
139 1 63.55 16.2765 10.7841 1.77921 0.154787 0.109778 -0.0797915
102 1 63.55 19.8683 8.98916 -0.130504 0.118284 -0.503485 -1.46177
104 1 63.55 18.0558 8.95756 1.71368 0.613102 0.0151175 1.65892
108 1 63.55 21.66 9.04625 1.70121 0.864952 1.24973 0.398815
141 1 63.55 18.0383 10.8128 -0.0960142 -0.0967985 -0.121867 -0.46065
143 1 63.55 19.8174 10.8074 1.70591 1.13191 -0.819751 0.211461
145 1 63.55 21.6472 10.8361 -0.0998157 1.31208 -0.0807241 -1.09678
106 1 63.55 23.4784 9.07932 -0.068288 1.1817 0.325986 0.917334
112 1 63.55 25.3472 8.98068 1.73954 -1.09821 0.0649953 0.176855
147 1 63.55 23.52 10.8104 1.71684 -0.554646 -0.730966 -0.0626428
149 1 63.55 25.3751 10.8346 -0.0461789 0.906545 -1.02318 -0.729419
110 1 63.55 27.1168 9.06059 -0.102663 -0.975433 1.24732 0.211756
116 1 63.55 28.8768 8.96725 1.77559 -0.66066 -0.46032 -0.538764
151 1 63.55 27.1263 10.8354 1.78954 -1.57779 0.321519 -0.822558
153 1 63.55 28.9272 10.8446 0.034643 0.125512 0.56307 0.686924
114 1 63.55 30.7435 9.02199 -0.0525589 -0.461779 -0.268786 -0.423099
155 1 63.55 30.7282 10.8827 1.79479 -0.655066 0.549718 0.592411
118 1 63.55 34.3043 9.10209 -0.0491836 0.0283579 0.358789 -0.527962
120 1 63.55 32.5451 9.0248 1.76011 -0.498837 -1.07318 0.794542
157 1 63.55 32.5585 10.8632 0.00513121 -1.07088 -0.247606 -1.32787
159 1 63.55 34.326 10.8911 1.77878 -1.37315 -0.588397 0.364679
122 1 63.55 1.77473 12.6268 -0.020469 -0.761635 0.296116 -0.470945
124 1 63.55 -0.0352721 12.6436 1.72807 -0.433522 0.543366 1.60711
128 1 63.55 3.5945 12.5944 1.78533 0.878252 0.0318505 -0.374984
161 1 63.55 -0.0142743 14.4654 -0.0381042 0.57625 0.162328 0.925402
163 1 63.55 1.80274 14.3884 1.76563 0.0155647 1.30315 0.4725
165 1 63.55 3.62207 14.3944 -0.0490043 1.11023 1.39071 0.800335
126 1 63.55 5.4348 12.6699 -0.10111 0.596601 0.110659 0.647878
132 1 63.55 7.20845 12.618 1.74684 1.60006 0.637747 -0.953841
167 1 63.55 5.45769 14.4255 1.79897 2.25857 0.51159 -1.21808
169 1 63.55 7.2346 14.449 -0.073266 -0.924369 -0.249307 0.235535
130 1 63.55 9.00851 12.6074 -0.0599969 -0.526578 -0.58272 1.96119
136 1 63.55 10.8812 12.6307 1.71435 0.850152 -1.03643 0.714103
171 1 63.55 9.00719 14.3727 1.73852 0.306802 -0.210505 -2.01062
173 1 63.55 10.772 14.4246 -0.0550655 1.11922 -0.260194 -1.72669
134 1 63.55 12.5999 12.6097 -0.0946166 -0.65507 -0.355343 -1.60177
140 1 63.55 14.3948 12.691 1.77426 0.571356 -0.42559 0.0517729
175 1 63.55 12.5976 14.4415 1.72064 0.978317 -0.627216 -1.33562
177 1 63.55 14.4397 14.4623 -0.0621847 -1.1986 0.967727 -1.19579
138 1 63.55 16.2127 12.677 -0.0437208 0.904603 0.0425912 -0.195147
179 1 63.55 16.2242 14.4732 1.75147 -0.278713 -0.185694 0.216136
142 1 63.55 19.8801 12.6267 -0.0301474 -0.0348315 -0.43558 1.54017
144 1 63.55 18.041 12.587 1.70641 0.323218 -0.443896 1.77677
148 1 63.55 21.7008 12.6226 1.76621 0.813733 -0.956944 -0.0363801
181 1 63.55 18.066 14.4972 -0.0386224 0.936327 0.653297 0.672244
183 1 63.55 19.8016 14.4554 1.76699 0.182091 -0.215095 -0.884251
185 1 63.55 21.641 14.4928 -0.01707 0.0512163 -0.673894 -0.463921
146 1 63.55 23.5025 12.5998 -0.0596827 0.706584 -0.910844 -0.797902
152 1 63.55 25.315 12.6253 1.77142 0.66099 1.27312 -0.428665
187 1 63.55 23.5816 14.4344 1.73928 -0.0176625 -0.322874 -0.177455
189 1 63.55 25.3347 14.4686 -0.0495367 -0.425262 -1.19684 0.867452
150 1 63.55 27.1203 12.6509 -0.0514672 -0.828268 -0.0770092 0.855835
156 1 63.55 28.9344 12.7165 1.76781 -0.924374 0.762486 1.1472
191 1 63.55 27.0922 14.3932 1.74034 0.0018484 0.257465 0.538623
193 1 63.55 28.9085 14.4769 -0.0619632 -0.805564 -0.879942 -0.246061
154 1 63.55 30.7053 12.6765 -0.0624863 0.525963 1.08998 0.58548
195 1 63.55 30.7329 14.4988 1.74138 -0.242897 1.36436 -0.930844
158 1 63.55 34.3309 12.6855 -0.0347857 -0.952579 -0.216316 -0.708301
160 1 63.55 32.5151 12.7087 1.74502 -1.09443 -0.741032 -0.562116
197 1 63.55 32.5188 14.4821 -0.0549578 -0.0878284 0.512752 0.656595
199 1 63.55 34.3582 14.4365 1.77252 -0.943214 -0.352601 -0.53708
162 1 63.55 1.82371 16.2148 0.0238814 -0.512608 1.15769 0.594988
164 1 63.55 0.00606157 16.2496 1.73684 0.00420745 0.040319 0.083501
168 1 63.55 3.58988 16.2427 1.74552 0.657957 0.359385 1.90314
166 1 63.55 5.39304 16.2544 -0.0307443 -0.84436 0.335918 0.830598
172 1 63.55 7.21537 16.2076 1.74114 0.280982 -0.646729 0.465391
170 1 63.55 8.97215 16.2479 -0.0928399 0.283692 0.538525 -0.567514
176 1 63.55 10.8234 16.2528 1.74378 0.526957 0.808637 -0.536274
174 1 63.55 12.5884 16.2698 -0.0940479 1.1934 -0.829481 -0.385441
180 1 63.55 14.4077 16.3339 1.74398 0.17391 0.0825918 -0.349915
178 1 63.55 16.2082 16.3091 0.0023862 0.585593 -0.624525 0.77413
182 1 63.55 19.869 16.2944 0.00906488 -0.0390062 0.246514 2.57651
184 1 63.55 18.0414 16.2799 1.83263 -1.07161 0.621251 0.0806127
188 1 63.55 21.7237 16.2426 1.76456 0.752758 -0.240797 0.401182
186 1 63.55 23.5024 16.2688 -0.0260985 -0.404889 -0.908921 -0.776946
192 1 63.55 25.3181 16.2902 1.76173 -0.45596 -1.59132 -0.015134
190 1 63.55 27.068 16.2651 -0.0693975 0.39477 0.177 -0.44354
196 1 63.55 28.8813 16.2348 1.72698 1.34745 0.103705 0.773937
194 1 63.55 30.7573 16.2796 -0.0505731 0.751348 -1.4581 -0.162141
198 1 63.55 34.3593 16.2311 -0.059823 0.872135 0.733936 -0.697542
200 1 63.55 32.5778 16.2762 1.8099 0.651658 -0.593973 -0.119902
201 1 63.55 0.0128697 18.0503 -0.0914238 1.83367 -0.923502 -1.00556
202 1 63.55 1.79999 19.8534 -0.0816915 -0.599177 -0.939465 -0.82798
203 1 63.55 1.75593 18.049 1.78918 -1.38025 0.503735 1.24361
204 1 63.55 -0.0130714 19.8353 1.73418 0.0967155 0.0757535 0.668803
205 1 63.55 3.59776 17.9956 -0.107202 -1.10292 0.322688 0.890497
208 1 63.55 3.60191 19.9081 1.72291 -0.452861 -0.734818 0.634373
241 1 63.55 -0.0756155 21.7167 -0.0506112 0.959572 -0.128693 0.777304
243 1 63.55 1.73095 21.6977 1.73592 0.0382709 0.399246 1.13355
245 1 63.55 3.57255 21.7062 -0.0543137 -0.553462 -0.639401 0.147433
206 1 63.55 5.38962 19.8683 -0.0306861 -0.0940574 -0.700018 -0.950295
207 1 63.55 5.40621 18.0568 1.76099 -0.357583 -0.814451 0.983683
209 1 63.55 7.22682 18.0422 -0.0561646 1.74935 -1.5758 -0.444982
212 1 63.55 7.18637 19.8922 1.73564 0.319686 -0.833191 1.05588
247 1 63.55 5.3972 21.7383 1.75255 -0.333785 0.81964 -1.4163
249 1 63.55 7.28718 21.6963 -0.0291686 1.91637 0.128799 0.0749322
210 1 63.55 8.97139 19.8794 -0.0346064 -0.371293 0.337925 -0.88712
211 1 63.55 8.98844 18.0405 1.73657 0.419552 1.01569 0.316629
213 1 63.55 10.8231 18.0717 -0.10972 0.328701 0.346067 -1.52647
216 1 63.55 10.7999 19.9186 1.80731 -1.25823 -0.553099 0.202852
251 1 63.55 9.00649 21.6971 1.76788 0.139348 0.631293 -1.42988
253 1 63.55 10.8276 21.6862 -0.0773701 0.2168 1.20185 0.580167
214 1 63.55 12.6512 19.901 -0.0812495 -0.0722852 -0.0827012 0.153736
215 1 63.55 12.6173 18.0787 1.73266 0.120881 0.424672 0.214745
217 1 63.55 14.4212 18.1006 -0.120152 0.524579 0.757918 -1.31336
220 1 63.55 14.4551 19.8637 1.70616 -0.667411 -0.637361 -1.07943
255 1 63.55 12.6935 21.6608 1.75363 0.653644 0.626391 0.50318
257 1 63.55 14.5109 21.6523 -0.0677782 0.02966 0.71418 -1.25274
218 1 63.55 16.2656 19.8749 -0.0599111 -0.502251 -0.413817 -1.51321
219 1 63.55 16.2449 18.0573 1.7608 -0.796752 -0.0458851 0.99468
259 1 63.55 16.2448 21.697 1.74868 -0.430145 0.45652 0.894146
221 1 63.55 18.0396 18.0781 0.00178705 0.0201295 1.09312 0.411289
222 1 63.55 19.8784 19.8788 -0.0153001 -0.59929 1.45387 -0.824869
223 1 63.55 19.8916 18.0725 1.8129 -0.457158 -0.760213 -1.66156
224 1 63.55 18.0897 19.8705 1.77131 0.219449 0.163644 -0.0325106
225 1 63.55 21.7109 18.0739 -0.0202673 -0.418899 -0.28624 0.216641
228 1 63.55 21.6836 19.8353 1.79673 -0.358045 1.19401 1.46591
261 1 63.55 18.0584 21.7044 -0.0697749 1.30029 -0.225778 0.258375
263 1 63.55 19.8912 21.7001 1.73197 0.369049 0.315908 0.829868
265 1 63.55 21.6915 21.6565 0.0234203 1.92132 0.536175 -0.272906
226 1 63.55 23.4811 19.8626 -0.0475321 0.487434 -0.0601313 1.01109
227 1 63.55 23.5182 18.0785 1.80221 -0.313657 -0.609987 -0.6512
229 1 63.55 25.3132 18.1219 -0.0229532 0.434422 1.4581 0.143452
232 1 63.55 25.3228 19.8798 1.72859 1.05718 0.90892 -0.292427
267 1 63.55 23.4997 21.6363 1.77409 0.83265 -1.22811 1.05354
269 1 63.55 25.2826 21.69 -0.0654228 -0.150302 0.61979 -0.702773
230 1 63.55 27.1489 19.8686 -0.0444847 0.212015 0.378655 -1.5768
231 1 63.55 27.1263 18.0727 1.70446 0.120404 0.210401 1.72764
233 1 63.55 28.9294 18.074 -0.0596812 -1.15248 0.153649 0.66709
236 1 63.55 28.9226 19.8849 1.78263 0.189809 0.912426 0.490703
271 1 63.55 27.1323 21.7132 1.74325 1.37756 0.121504 0.395174
273 1 63.55 28.9076 21.7019 -0.0344731 0.32123 -0.746438 -1.69673
234 1 63.55 30.7115 19.9193 -0.0347075 -0.540369 1.36372 0.214237
235 1 63.55 30.714 18.0445 1.71262 -0.403371 -1.09367 -1.92915
275 1 63.55 30.7198 21.6493 1.75613 0.36558 -0.0966803 -0.699513
237 1 63.55 32.5328 18.0878 -0.0235556 1.51914 -2.42639 0.24016
238 1 63.55 34.3546 19.9172 -0.112262 0.611351 -0.669364 0.902584
239 1 63.55 34.3724 18.0698 1.75648 -0.402012 -1.0757 0.386458
240 1 63.55 32.4825 19.8222 1.77149 0.925243 0.294869 0.373379
277 1 63.55 32.5574 21.6216 -0.0470094 -0.0615033 -0.31881 0.832878
279 1 63.55 34.2972 21.6603 1.74508 0.331441 1.46475 0.578967
242 1 63.55 1.74598 23.481 -0.0376036 1.59177 -1.17851 0.839019
244 1 63.55 -0.0491068 23.5726 1.75684 0.944671 -1.13591 -1.32783
248 1 63.55 3.54843 23.4916 1.73663 1.3588 -0.147673 0.245999
281 1 63.55 0.000929803 25.3608 -0.0836104 1.20873 -1.32905 1.19112
283 1 63.55 1.81162 25.3335 1.73914 0.781813 -0.470373 -0.195978
285 1 63.55 3.5853 25.2715 -0.108862 0.778935 0.0588817 -0.563159
246 1 63.55 5.44665 23.4897 -0.0351851 -0.875679 -1.26757 0.10595
252 1 63.55 7.21667 23.5378 1.73444 -1.18495 -1.05922 -0.487735
287 1 63.55 5.37443 25.3246 1.75581 -1.14662 -0.611912 0.020071
289 1 63.55 7.24059 25.3292 -0.0606407 0.251008 -1.29601 2.01978
250 1 63.55 9.00665 23.5399 -0.111575 -0.490179 -1.1322 -0.772892
256 1 63.55 10.8463 23.4608 1.71668 -1.401 1.12156 0.384724
291 1 63.55 9.0327 25.2841 1.74031 1.30478 -0.22417 -0.768811
293 1 63.55 10.8138 25.2696 -0.0490169 0.0205863 0.870235 -0.0080194
254 1 63.55 12.6613 23.4899 -0.020728 -1.56345 -0.612289 1.02474
260 1 63.55 14.42 23.5242 1.74087 -1.8063 -0.464194 0.292746
295 1 63.55 12.6196 25.3258 1.69482 1.20113 0.26883 -0.839527
297 1 63.55 14.468 25.2774 -0.0680924 0.135441 -0.198457 1.16276
258 1 63.55 16.2809 23.4844 -0.0124198 -1.398 0.610676 -0.750819
299 1 63.55 16.2784 25.2786 1.77161 -0.298479 -0.00536164 -0.0844698
262 1 63.55 19.8741 23.5171 -0.0709404 -0.106802 0.944878 -0.164033
264 1 63.55 18.0611 23.4763 1.78716 -0.864934 -0.190122 -1.23947
268 1 63.55 21.6997 23.4816 1.77673 -0.904198 1.09839 0.416814
301 1 63.55 18.084 25.3027 -0.0091534 0.249012 -0.449516 0.989496
303 1 63.55 19.8997 25.329 1.77719 -0.985083 -0.352315 0.412038
305 1 63.55 21.6751 25.2848 -0.0564426 0.216372 -1.48354 0.475443
266 1 63.55 23.4768 23.4374 -0.0340347 0.317312 -0.838192 -0.65701
272 1 63.55 25.2857 23.4517 1.71152 -0.101698 0.963238 0.561897
307 1 63.55 23.4872 25.2998 1.72487 1.03448 -0.681821 0.0567908
309 1 63.55 25.2171 25.2829 -0.0928653 0.871455 -0.690152 -1.19851
270 1 63.55 27.0243 23.5159 -0.102305 -0.622087 0.314255 -1.46406
276 1 63.55 28.9336 23.4766 1.73617 1.04051 -0.55313 0.775089
311 1 63.55 27.0929 25.2398 1.71802 -0.129472 -1.48058 0.974712
313 1 63.55 28.9927 25.2714 -0.0689307 0.382773 -1.08655 1.14712
274 1 63.55 30.7828 23.4607 -0.0419392 -0.348088 -1.18013 0.515205
315 1 63.55 30.726 25.3406 1.75651 -0.0339639 1.15205 -1.06039
278 1 63.55 34.3221 23.503 -0.0447403 1.88427 0.468237 1.31332
280 1 63.55 32.4868 23.5158 1.78102 0.327702 0.962775 2.31302
317 1 63.55 32.5631 25.2676 -0.055463 0.772017 -0.754865 0.122577
319 1 63.55 34.3748 25.2781 1.75957 0.024116 -0.0893452 0.135973
282 1 63.55 1.78254 27.1405 -0.107236 0.688173 0.680666 -0.610477
284 1 63.55 0.0391318 27.1633 1.79559 -0.187973 -0.00943546 0.194333
288 1 63.55 3.59007 27.1237 1.7108 -1.23736 1.42445 -1.15994
321 1 63.55 0.000103612 28.9242 -0.0691563 0.113165 -0.284146 0.777822
323 1 63.55 1.83033 28.9681 1.78442 -0.572865 -0.549884 1.08398
325 1 63.55 3.61432 28.9197 -0.054589 -0.202703 0.842232 0.808566
286 1 63.55 5.43455 27.0522 -0.0386806 0.618461 0.441318 0.824926
292 1 63.55 7.21062 27.1284 1.71103 -0.874724 -0.424753 -0.653806
327 1 63.55 5.34784 28.9219 1.78546 -0.516644 -1.68918 0.475928
329 1 63.55 7.1716 28.9403 -0.0430531 0.604041 0.782291 0.992793
290 1 63.55 9.04675 27.0962 -0.0783357 0.268197 0.878692 -0.752429
296 1 63.55 10.8428 27.1175 1.73114 -1.38878 0.0585017 -0.530048
331 1 63.55 8.98112 28.8873 1.70344 -0.750743 -0.48119 -0.583236
333 1 63.55 10.7865 28.9063 -0.101901 1.57168 -0.492021 -1.13048
294 1 63.55 12.6532 27.0827 -0.09088 0.489926 0.848378 0.0400421
300 1 63.55 14.414 27.1146 1.74769 -0.255486 0.421747 -0.402808
335 1 63.55 12.6196 28.909 1.72259 0.470229 -0.177503 0.472956
337 1 63.55 14.4703 28.9466 -0.0545452 -1.2951 0.649375 -2.06842
298 1 63.55 16.2661 27.0704 -0.00196479 -1.07324 -0.226285 0.150956
339 1 63.55 16.2307 28.8851 1.81476 -0.666293 0.0746563 0.401384
302 1 63.55 19.9247 27.1591 -0.0280878 0.612046 -1.91922 -0.595688
304 1 63.55 18.0561 27.1274 1.76847 0.151884 -1.05733 0.246103
308 1 63.55 21.6872 27.1295 1.78198 1.84711 -0.203383 -0.160785
341 1 63.55 17.9828 28.9215 -0.00787152 0.88538 -0.210644 -1.28573
343 1 63.55 19.9033 28.9497 1.73515 -1.0708 -0.611793 -1.26102
345 1 63.55 21.671 28.9701 -0.0100117 1.5184 -0.544597 0.682475
306 1 63.55 23.4372 27.1091 -0.076687 -0.853144 -0.111841 0.703864
312 1 63.55 25.2798 27.0985 1.71849 -1.56323 -1.25325 0.173473
347 1 63.55 23.4925 28.9369 1.74801 -0.796881 -0.136157 -1.35641
349 1 63.55 25.2202 28.8806 -0.0949152 1.38319 -0.244855 0.293468
310 1 63.55 27.0637 27.112 -0.107374 -0.833176 -1.39026 0.503149
316 1 63.55 28.8849 27.0956 1.68753 -0.535688 -0.901724 0.986767
351 1 63.55 27.0655 28.8889 1.68203 -0.187987 0.650267 0.116834
353 1 63.55 28.8808 28.8555 -0.0289178 -0.260803 1.21016 -0.303283
314 1 63.55 30.739 27.1183 -0.0574785 -1.77151 0.152372 0.157644
355 1 63.55 30.7086 28.866 1.76321 -0.595357 0.66437 0.475089
318 1 63.55 34.3831 27.1038 -0.0668889 0.673937 0.35331 -0.552866
320 1 63.55 32.5899 27.1272 1.77162 0.476778 -1.05337 -0.72418
357 1 63.55 32.5521 28.892 -0.0467251 -1.27192 -0.493655 -0.896447
359 1 63.55 34.3443 28.9202 1.75505 0.904119 0.919298 0.65706
322 1 63.55 1.79862 30.7028 -0.0490697 0.77331 0.720745 0.0134728
324 1 63.55 -0.0399511 30.7595 1.79237 1.16463 0.522597 -0.957471
328 1 63.55 3.58494 30.7812 1.71708 0.727557 0.419877 -0.87394
326 1 63.55 5.37849 30.7229 -0.0735048 0.77489 0.042022 1.26941
332 1 63.55 7.17213 30.7351 1.70357 0.122236 -0.238468 1.23545
330 1 63.55 9.02028 30.7201 -0.0530586 -0.541013 1.20725 1.35945
336 1 63.55 10.8417 30.6847 1.77737 -0.130961 0.0365111 0.233005
334 1 63.55 12.646 30.7305 -0.0329304 -0.868722 0.620925 0.538138
340 1 63.55 14.4427 30.7 1.79047 0.657674 -0.479489 0.2894
338 1 63.55 16.2354 30.7696 -0.0558634 0.464535 -0.170785 -1.25167
342 1 63.55 19.8498 30.7624 -0.0841975 1.1586 0.099839 0.300734
344 1 63.55 18.0224 30.6886 1.73005 0.994135 -0.306895 -0.0936319
348 1 63.55 21.6496 30.7594 1.75015 0.246258 1.21687 1.39928
346 1 63.55 23.4944 30.7498 -0.059768 0.20697 0.337007 -1.33728
352 1 63.55 25.2749 30.6936 1.77488 1.42504 -0.511399 -0.943428
350 1 63.55 27.0912 30.7124 -0.0605982 -0.185476 0.166131 0.955567
356 1 63.55 28.9324 30.6834 1.78286 -0.338357 1.71035 0.0936977
354 1 63.55 30.6874 30.7407 -0.00234565 -0.647989 0.179576 -1.21635
358 1 63.55 34.3681 30.713 -0.0293114 -0.665855 -0.278111 -1.24691
360 1 63.55 32.4857 30.7243 1.75474 1.3403 0.0341448 -0.15728
361 1 63.55 -0.0206241 32.5419 -0.0934489 1.07659 -0.163997 -0.214757
362 1 63.55 1.76678 34.3536 -0.122761 -1.53551 0.992606 -0.753676
363 1 63.55 1.75313 32.556 1.73253 0.0923434 0.280167 0.626104
364 1 63.55 -0.0319646 34.3474 1.75079 -1.96578 1.8373 -0.546667
365 1 63.55 3.60446 32.5545 -0.0626738 -1.13937 1.05746 1.38354
368 1 63.55 3.64412 34.336 1.72794 0.635927 0.640214 0.952766
366 1 63.55 5.40511 34.3437 -0.0631398 0.169189 -2.51729 -0.914231
367 1 63.55 5.43314 32.5654 1.73601 0.662456 -1.29881 -1.72526
369 1 63.55 7.20186 32.5286 -0.0445865 0.783513 -0.0113228 1.58039
372 1 63.55 7.22194 34.3411 1.73089 -0.139444 0.0732801 -0.505177
370 1 63.55 9.02902 34.3693 -0.0556179 -1.39526 0.284204 -1.61448
371 1 63.55 9.03042 32.5095 1.7166 0.19659 -0.776075 -0.405382
373 1 63.55 10.798 32.5279 -0.0964448 0.716729 0.281284 0.0983577
376 1 63.55 10.8066 34.3337 1.73204 0.701712 -0.299945 -0.284333
374 1 63.55 12.6435 34.3358 -0.0902853 1.82639 0.414144 -0.388569
375 1 63.55 12.5963 32.5155 1.73547 -0.0729225 -0.043818 0.548124
377 1 63.55 14.4273 32.5269 -0.0780466 -0.928164 0.232664 1.0669
380 1 63.55 14.4162 34.356 1.70277 0.28823 -0.969933 0.399881
378 1 63.55 16.2157 34.3661 -0.0502691 -1.27483 -0.282846 0.679227
379 1 63.55 16.2426 32.5255 1.76148 -0.465627 0.284108 0.504691
381 1 63.55 18.038 32.5583 -0.0849616 1.97767 0.230896 -0.533713
382 1 63.55 19.8657 34.3764 -0.0233988 1.05589 0.36165 -0.154986
383 1 63.55 19.8872 32.5259 1.79972 -1.42296 -0.843646 1.01578
384 1 63.55 18.094 34.3398 1.78805 0.104956 -1.05458 -0.157264
385 1 63.55 21.6513 32.4921 -0.0907876 -0.690412 -0.864968 0.779497
388 1 63.55 21.6772 34.3272 1.75706 -1.20367 -1.45808 -1.00688
386 1 63.55 23.5662 34.3304 0.0103408 -0.960647 0.42515 -0.143316
387 1 63.55 23.4861 32.5656 1.75614 -2.17807 -0.260385 0.556306
389 1 63.55 25.3344 32.5369 -0.0312164 -1.00103 0.353862 -0.6215
392 1 63.55 25.349 34.3781 1.76395 1.25531 0.902524 -0.362001
390 1 63.55 27.0984 34.3866 -0.0348527 -0.242041 0.34168 -0.501532
391 1 63.55 27.1019 32.4609 1.76793 -0.496093 0.760422 0.94121
393 1 63.55 28.8557 32.5628 -0.0100009 -0.412123 0.710753 -0.769205
396 1 63.55 28.9202 34.354 1.80371 -0.273033 1.53456 -0.461182
394 1 63.55 30.6849 34.349 -0.075545 0.051247 -0.267554 -1.05124
395 1 63.55 30.7759 32.5533 1.81662 -0.036655 0.705074 1.58685
397 1 63.55 32.4915 32.5407 -0.0602891 -0.598677 0.39642 -0.449563
398 1 63.55 34.3436 34.335 -0.0599013 0.139436 0.116496 -0.95817
399 1 63.55 34.3553 32.5561 1.77943 -1.31456 0.0335595 0.522956
400 1 63.55 32.5442 34.3562 1.76968 -0.969565 0.162055 -0.244832
401 1 63.55 -0.0655655 -0.0164875 3.53785 -0.428741 0.0799967 -1.41433
402 1 63.55 1.81928 1.76221 3.52374 0.100655 -0.0290449 1.36331
403 1 63.55 1.73745 -0.040069 5.45915 0.955341 1.34101 0.248082
404 1 63.55 -0.0102526 1.74361 5.36114 0.577239 -0.503451 1.39614
405 1 63.55 3.54734 -0.0340608 3.5334 0.726986 0.585111 -0.0491714
408 1 63.55 3.55943 1.75242 5.38105 0.287543 -0.279381 0.122084
441 1 63.55 -0.0273579 3.63195 3.5668 0.882073 0.589461 0.860365
443 1 63.55 1.75948 3.60391 5.37713 1.78777 0.865478 0.180204
445 1 63.55 3.61205 3.56725 3.55991 -0.0232421 1.38447 0.668954
406 1 63.55 5.37982 1.77778 3.57279 -0.627616 0.144833 -0.247827
407 1 63.55 5.37333 -0.0241326 5.37391 0.629147 0.931412 0.560821
409 1 63.55 7.2222 -0.0454907 3.51066 1.81982 0.270617 -1.03991
412 1 63.55 7.2139 1.81715 5.31104 0.318396 -0.700311 -0.121167
447 1 63.55 5.41427 3.56914 5.33648 1.39072 -0.245741 0.714422
449 1 63.55 7.2599 3.57775 3.54505 0.397458 1.12524 0.595809
410 1 63.55 8.97807 1.82668 3.53661 -1.26273 0.163585 -0.724577
411 1 63.55 9.06768 0.0191613 5.33724 0.526062 -0.673971 -1.16482
413 1 63.55 10.8544 0.000495174 3.48886 -0.349531 0.165793 0.494955
416 1 63.55 10.8721 1.78056 5.30656 0.125503 0.549648 0.909003
451 1 63.55 9.09543 3.57766 5.35447 0.134618 1.52453 -0.6877
453 1 63.55 10.8635 3.60237 3.55733 -0.242121 0.80329 -0.197241
414 1 63.55 12.6627 1.80353 3.50897 -0.64397 -1.17743 0.256806
415 1 63.55 12.6704 -0.0147763 5.36884 -0.20717 -0.440346 1.14607
417 1 63.55 14.4609 -0.030989 3.553 -0.290224 -0.812034 -0.0541584
420 1 63.55 14.4277 1.75508 5.3077 0.393396 1.20703 -0.511259
455 1 63.55 12.6594 3.6501 5.36597 -1.27118 -0.689916 -0.324206
457 1 63.55 14.4384 3.60058 3.53845 -1.00504 2.15469 0.0171746
418 1 63.55 16.2679 1.74705 3.52024 -2.97383 -1.05057 0.34943
419 1 63.55 16.2707 -0.0105314 5.34877 -0.348452 0.543751 -0.841183
459 1 63.55 16.2149 3.62931 5.35606 1.08255 0.352706 -0.466257
421 1 63.55 18.1196 0.00657124 3.52372 -1.53912 0.162931 -0.579089
422 1 63.55 19.8854 1.8507 3.56393 -0.102831 -1.19041 0.789149
423 1 63.55 19.938 0.0462931 5.36236 -0.574712 -0.52631 -0.0250445
424 1 63.55 18.0339 1.81721 5.31847 -0.561137 0.149344 0.51044
425 1 63.55 21.6564 0.00454656 3.54436 -0.702286 -0.607883 -1.31421
428 1 63.55 21.7304 1.79337 5.36166 1.83401 -0.806056 0.189449
461 1 63.55 18.0488 3.59735 3.51206 0.422157 -0.59036 0.370884
463 1 63.55 19.8716 3.5705 5.43242 0.156822 -0.197833 0.527118
465 1 63.55 21.7079 3.6204 3.56991 -0.900487 -0.827022 -1.1249
426 1 63.55 23.4771 1.8203 3.49017 -0.283655 -0.0947089 1.4539
427 1 63.55 23.4876 -0.0369255 5.31183 -0.45664 0.236026 0.244802
429 1 63.55 25.3073 0.0179102 3.50409 -0.725362 1.71125 0.180881
432 1 63.55 25.2837 1.78843 5.34497 0.582376 -0.774024 -1.42199
467 1 63.55 23.5276 3.60769 5.33659 0.149893 -0.460572 -2.38409
469 1 63.55 25.3253 3.60763 3.57207 -0.561374 -1.794 0.627652
430 1 63.55 27.1093 1.79253 3.61103 0.252377 -0.322695 -0.0703863
431 1 63.55 27.1322 0.0145515 5.36943 -1.02805 -0.738239 0.666826
433 1 63.55 28.9566 0.0284677 3.60016 0.614512 -0.398183 0.753352
436 1 63.55 28.9678 1.79895 5.41118 -0.743303 1.22341 1.53942
471 1 63.55 27.0968 3.64272 5.38189 1.54454 0.179379 -0.804868
473 1 63.55 28.9059 3.59775 3.56844 -0.210307 0.62105 0.298067