ITEM: TIMESTEP
3000
ITEM: NUMBER OF ATOMS
20000
ITEM: BOX BOUNDS pp pp pp
-1.1340006855565576e-02 3.6161340006855653e+01
-1.1400153176960970e-02 3.6161400153176842e+01
-1.0090725760612429e-01 1.8085090725760676e+02
ITEM: ATOMS id type mass x y z vx vy vz
1 1 63.55 -0.0437113 -0.0563154 -0.0863033 0.308265 -0.479824 0.81566
2 1 63.55 1.78548 1.73116 -0.10088 0.737787 -0.55983 1.56041
3 1 63.55 1.82672 -0.0571416 1.67303 -1.22068 0.734142 0.433055
4 1 63.55 0.0120765 1.72187 1.63705 -0.0280715 0.619315 -1.21875
5 1 63.55 3.58776 -0.0670572 -0.117715 0.130713 -0.665891 0.0983757
8 1 63.55 3.60277 1.7467 1.66762 0.0632324 1.1643 1.25331
41 1 63.55 -0.0230556 3.56185 -0.115447 0.67972 -0.198136 1.50841
43 1 63.55 1.81881 3.54047 1.65538 0.0869304 -0.29172 0.160726
45 1 63.55 3.65594 3.57711 -0.0764721 0.69569 0.740961 -0.701751
6 1 63.55 5.40856 1.70365 -0.110843 0.722447 0.563775 0.0414923
7 1 63.55 5.39856 -0.00705081 1.71688 -0.32815 0.890028 -0.260227
9 1 63.55 7.27107 0.0037655 -0.0338507 1.1375 -1.22332 -0.952465
12 1 63.55 7.25994 1.81065 1.74719 -0.0414201 0.354315 -0.915812
47 1 63.55 5.43142 3.60511 1.70984 0.626547 -0.213076 0.344176
49 1 63.55 7.16331 3.57261 -0.0496808 0.607265 -0.0413565 -0.641115
10 1 63.55 9.0205 1.80144 -0.0759044 -0.656222 -0.452978 0.430981
11 1 63.55 9.07819 0.00167177 1.7614 1.56836 0.909413 -0.170335
13 1 63.55 10.8236 -0.0173605 -0.00982297 0.261036 -1.13212 -1.05302
16 1 63.55 10.8427 1.80767 1.66944 0.109993 0.248817 0.12212
51 1 63.55 9.01638 3.6187 1.70075 0.0484218 0.284262 -0.147279
53 1 63.55 10.8575 3.62212 -0.0269531 -0.314786 -0.0795932 0.558157
14 1 63.55 12.6523 1.75661 -0.062714 0.769988 -0.478516 0.608972
15 1 63.55 12.6426 -0.00347718 1.74844 0.23812 0.260723 -0.686148
17 1 63.55 14.4669 0.0241248 -0.149021 -0.123294 0.109357 -0.419052
20 1 63.55 14.434 1.76188 1.77591 -0.0629012 0.207605 -1.23859
55 1 63.55 12.7274 3.60663 1.7366 -0.164468 -0.199172 -1.21637
57 1 63.55 14.4495 3.5816 -0.105555 0.100003 -1.34648 -0.795003
18 1 63.55 16.2746 1.82986 -0.0850227 -0.208423 0.0856654 -0.378751
19 1 63.55 16.2609 -0.00138661 1.68991 0.115882 -0.993983 -0.304903
59 1 63.55 16.1879 3.58699 1.79253 -0.428794 -0.537773 -0.410418
21 1 63.55 18.024 -0.0105506 -0.0943138 0.461937 0.527757 -0.461534
22 1 63.55 19.8913 1.82319 -0.0290182 -1.06815 0.0975769 0.962995
23 1 63.55 19.8653 -0.00247777 1.66709 -1.3398 0.167551 1.43824
24 1 63.55 18.0793 1.85034 1.71754 -0.524196 0.913883 2.00679
25 1 63.55 21.7094 -0.0147993 -0.0841089 -0.301264 -0.430159 -0.502314
28 1 63.55 21.7271 1.78048 1.72116 0.865148 -0.102568 0.293691
61 1 63.55 18.0543 3.62077 -0.0832594 1.02377 0.345134 1.28467
63 1 63.55 19.9506 3.65494 1.73148 -0.133095 0.309667 1.99997
65 1 63.55 21.7688 3.6452 -0.0821871 0.0214069 0.321355 0.149953
26 1 63.55 23.5139 1.69574 -0.0742832 0.215677 0.732068 -0.700136
27 1 63.55 23.4602 -0.0537124 1.77903 0.370399 -0.333353 -1.12862
29 1 63.55 25.3529 -0.118403 -0.108116 -0.461159 0.607556 -0.113008
32 1 63.55 25.2679 1.77829 1.72499 -0.354106 0.285473 0.400102
67 1 63.55 23.5198 3.60496 1.72238 -0.666221 -0.562143 0.545282
69 1 63.55 25.3269 3.58558 -0.0831957 -1.28507 -1.0596 -1.10352
30 1 63.55 27.0817 1.74512 -0.0657258 -0.227344 0.165195 0.805485
31 1 63.55 27.0566 -0.0544161 1.72689 0.143701 -0.392556 0.323689
33 1 63.55 28.9237 -0.0162565 -0.0322852 -0.0272162 -0.353454 -0.17163
36 1 63.55 28.8959 1.8135 1.69877 0.62567 -0.273508 0.489703
71 1 63.55 27.0001 3.55626 1.66851 -2.07741 -0.36046 0.0733506
73 1 63.55 28.8814 3.56227 -0.0897831 -0.371789 -0.0501446 -1.23798
34 1 63.55 30.7185 1.82258 -0.149526 0.404125 -1.25953 0.487964
35 1 63.55 30.7229 0.0503353 1.69536 -0.0929511 -0.302287 0.441726
75 1 63.55 30.7487 3.62222 1.71323 0.491563 -1.07109 -0.324657
37 1 63.55 32.5068 -0.00399977 -0.102294 -0.173682 -0.0516407 -1.18639
38 1 63.55 34.3591 1.76595 -0.0776504 0.538639 -0.578957 0.675826
39 1 63.55 34.2884 -0.0608586 1.6756 -0.683606 -1.1789 0.0697816
40 1 63.55 32.4961 1.82877 1.72383 2.36123 0.212546 -0.967126
77 1 63.55 32.5394 3.61175 -0.0983927 0.0929203 0.737258 0.0670281
79 1 63.55 34.3413 3.56903 1.68994 0.975117 -0.0418788 0.616274
42 1 63.55 1.77401 5.34641 -0.0832276 0.507477 -1.09353 -0.675296
44 1 63.55 0.0149965 5.4252 1.72318 0.41866 0.142747 -0.830987
48 1 63.55 3.60941 5.39395 1.67619 -0.316428 0.271425 0.150953
81 1 63.55 -0.00406466 7.22275 -0.148781 0.596568 -0.1663 -1.13026
83 1 63.55 1.74166 7.2166 1.72109 -0.792679 1.27818 1.2044
85 1 63.55 3.59316 7.27502 -0.0496108 0.0714044 -0.407333 0.157107
46 1 63.55 5.42583 5.45007 -0.0893154 -0.67148 1.00844 1.8393
52 1 63.55 7.1682 5.37697 1.78225 -0.721814 -0.533891 1.18894
87 1 63.55 5.43029 7.25455 1.67356 0.255578 -1.12446 0.34966
89 1 63.55 7.20966 7.25347 -0.120388 -1.0891 -1.00571 1.33596
50 1 63.55 9.00495 5.38558 -0.100833 -0.71185 -1.35796 -0.838473
56 1 63.55 10.8434 5.41679 1.72923 -0.215597 -0.479372 0.702398
91 1 63.55 8.96425 7.18654 1.706 0.313537 0.419191 -0.172114
93 1 63.55 10.7762 7.24045 -0.0672875 0.0981546 -1.44757 0.883887
54 1 63.55 12.634 5.4123 -0.0806743 0.00878758 -0.14004 -0.532083
60 1 63.55 14.475 5.43285 1.70763 0.914761 0.361863 -0.233231
95 1 63.55 12.6522 7.19859 1.71835 -1.10532 0.0606985 0.266493
97 1 63.55 14.4619 7.16577 -0.125025 -1.99367 -0.0541972 0.216223
58 1 63.55 16.2555 5.40423 -0.0915148 1.32148 0.84523 -0.354447
99 1 63.55 16.2352 7.22053 1.73336 2.35972 -0.40616 0.306225
62 1 63.55 19.8773 5.38444 -0.122413 0.473022 -0.747737 0.881359
64 1 63.55 18.1076 5.40241 1.70336 0.531343 0.24212 -0.806749
68 1 63.55 21.7174 5.43487 1.68457 1.12325 -0.0136171 -0.207669
101 1 63.55 18.0969 7.1569 -0.0964324 -0.0559377 0.978123 -1.35777
103 1 63.55 19.891 7.18698 1.70075 1.18073 0.466951 0.746507
105 1 63.55 21.7291 7.20984 -0.174285 1.45088 0.515919 -1.60649
66 1 63.55 23.5256 5.4522 -0.121876 -0.412323 -0.32191 -0.94462
72 1 63.55 25.2905 5.38769 1.73529 -0.145161 -1.6051 0.355379
107 1 63.55 23.5064 7.2093 1.71092 -0.64017 1.40228 1.04446
109 1 63.55 25.3089 7.21679 -0.0843431 1.2336 0.397555 2.20065
70 1 63.55 27.0986 5.38033 -0.119801 0.460076 1.98936 -0.311564
76 1 63.55 28.8836 5.3428 1.69419 0.476864 0.0219199 0.536511
111 1 63.55 27.0988 7.22106 1.71485 -1.27604 -0.870646 -0.407277
113 1 63.55 28.9262 7.19626 -0.0971697 -0.841562 1.06936 0.577275
74 1 63.55 30.7484 5.38356 -0.0780461 -0.449114 -0.770667 0.232808
115 1 63.55 30.7101 7.20016 1.72273 0.726671 -0.449354 0.833702
78 1 63.55 34.3516 5.39043 -0.0639986 -0.469404 0.415915 1.40215
80 1 63.55 32.5782 5.44824 1.72117 0.0574775 0.974527 -0.268211
117 1 63.55 32.5406 7.20831 -0.103862 -0.625222 -0.834861 -0.181716
119 1 63.55 34.3525 7.27435 1.69769 0.694734 0.291171 -0.244248
82 1 63.55 1.79034 9.02548 -0.0906997 0.751637 1.61564 0.106034
84 1 63.55 0.0525464 9.05369 1.6806 -0.330536 1.12442 -2.11827
88 1 63.55 3.57663 9.08058 1.79964 0.399763 -0.0781051 -0.848189
121 1 63.55 0.00292319 10.8775 -0.0997668 -0.00411019 0.459824 -0.103269
123 1 63.55 1.79246 10.8574 1.70592 0.517983 -0.474362 0.362754
125 1 63.55 3.55392 10.8417 -0.0591405 1.41746 -0.120683 0.122385
86 1 63.55 5.35303 9.06742 -0.0579795 -0.0185383 -0.149442 -0.846111
92 1 63.55 7.14998 9.05551 1.7497 -1.92233 1.32097 0.198215
127 1 63.55 5.36815 10.8799 1.73334 -0.238534 0.309708 -0.913252
129 1 63.55 7.16177 10.8387 -0.0955998 -0.0833684 0.183989 -0.644492
90 1 63.55 8.96413 9.01289 -0.111448 -0.205126 1.93869 -0.918054
96 1 63.55 10.7578 9.00715 1.74661 -0.236327 -0.632999 -0.506653
131 1 63.55 9.04217 10.8416 1.74056 -0.255066 -0.0858409 -0.757619
133 1 63.55 10.7948 10.8611 -0.0782485 -1.28189 -1.10014 0.220049
94 1 63.55 12.6187 9.02142 -0.0438967 -2.15621 -0.278337 -1.15737
100 1 63.55 14.485 8.98456 1.73683 0.184069 1.10705 -0.58343
135 1 63.55 12.6541 10.8374 1.70527 -0.516215 0.649738 0.539079
137 1 63.55 14.4892 10.8108 -0.0185576 0.766159 -1.43959 1.23697
98 1 63.55 16.2585 8.98113 -0.0649889 0.0552889 0.483669 -0.291429
139 1 63.55 16.2727 10.7733 1.72394 0.827093 0.889493 1.17626
102 1 63.55 19.932 8.9383 -0.0925772 -0.422886 -0.0958018 0.834139
104 1 63.55 18.1032 8.91366 1.7427 0.322064 0.582782 0.094657
108 1 63.55 21.6618 9.01989 1.75304 -0.795789 0.262239 -0.266104
141 1 63.55 18.1122 10.7647 -0.0774284 0.662888 -1.13704 1.51932
143 1 63.55 19.9124 10.7586 1.76533 -0.262313 0.980309 -0.163253
145 1 63.55 21.6775 10.7881 -0.00941636 -1.28488 0.568188 -0.673989
106 1 63.55 23.504 8.99053 -0.0776329 0.140856 0.168081 -1.10019
112 1 63.55 25.3313 8.97161 1.7678 0.888219 -1.20607 1.87562
147 1 63.55 23.5479 10.7964 1.74532 0.393578 0.39662 -0.0298872
149 1 63.55 25.2785 10.7864 -0.109146 0.407647 -0.407661 1.75748
110 1 63.55 27.1015 9.06936 -0.0999754 -0.416337 0.511563 0.150313
116 1 63.55 28.9043 9.03393 1.69659 0.374507 0.464374 0.90221
151 1 63.55 27.1211 10.8572 1.69184 -0.324996 -0.308492 1.28754
153 1 63.55 28.9251 10.8546 -0.125725 0.776288 -0.0126477 -0.265495
114 1 63.55 30.7235 9.00338 -0.082671 -1.10757 0.757189 -1.11608
155 1 63.55 30.7459 10.8361 1.7179 0.114186 -0.208707 -0.582244
118 1 63.55 34.4076 8.99853 -0.120469 -0.553252 -1.06417 1.02841
120 1 63.55 32.5469 8.98863 1.7182 0.0476128 1.13691 -0.530852
157 1 63.55 32.5664 10.7741 -0.108925 -1.70082 -0.538378 -0.462988
159 1 63.55 34.3562 10.8512 1.68234 -0.0546659 -0.111941 -0.0243544
122 1 63.55 1.74104 12.6662 -0.0983721 -1.07431 -0.888899 1.40957
124 1 63.55 -0.0198631 12.6383 1.74106 -0.0994019 0.220867 1.62382
128 1 63.55 3.55293 12.6749 1.69689 -0.991292 0.830998 -0.3349
161 1 63.55 -0.0789269 14.4503 -0.0758407 -1.29629 0.800727 0.502089
163 1 63.55 1.72946 14.5099 1.64373 -0.705479 -0.540377 0.148342
165 1 63.55 3.59752 14.4514 -0.122976 -0.228386 -0.23649 -0.197916
126 1 63.55 5.37375 12.6608 -0.102863 -0.0885504 0.178162 0.0710239
132 1 63.55 7.17351 12.6325 1.70518 0.167999 -0.285117 0.655412
167 1 63.55 5.35274 14.48 1.69815 -0.633189 0.997882 0.0303338
169 1 63.55 7.15393 14.4587 -0.108677 -0.574412 1.20061 0.611574
130 1 63.55 8.99372 12.6407 -0.124835 0.111777 -0.510428 -1.80432
136 1 63.55 10.8765 12.6341 1.71138 -0.120491 -0.867617 -0.126324
171 1 63.55 8.96881 14.4419 1.69485 -0.198113 0.188139 -1.01428
173 1 63.55 10.8448 14.4855 -0.0551045 -0.227669 -0.81102 1.51837
134 1 63.55 12.6535 12.5722 -0.105237 1.06585 -1.71279 -0.561822
140 1 63.55 14.4571 12.6359 1.67928 0.354135 -0.0580854 0.365533
175 1 63.55 12.6988 14.4569 1.71724 -0.517017 -1.82848 0.494556
177 1 63.55 14.4746 14.4624 -0.12978 0.796356 -1.73207 0.876312
138 1 63.55 16.2566 12.5876 -0.0939438 -0.721983 -0.43754 0.069036
179 1 63.55 16.2615 14.4467 1.69897 0.514397 0.620639 0.33628
142 1 63.55 19.9355 12.631 -0.0236389 -0.0517786 0.660559 -0.287049
144 1 63.55 18.1228 12.6591 1.71432 -1.59378 -0.154406 -0.394837
148 1 63.55 21.7023 12.6502 1.7658 0.326487 1.0286 -0.190864
181 1 63.55 18.0564 14.4503 -0.0709223 -0.324847 -0.465538 -0.328583
183 1 63.55 19.855 14.4978 1.76245 -1.67519 -0.986196 -0.114717
185 1 63.55 21.6471 14.4345 -0.0478371 -0.174038 0.255863 0.226982
146 1 63.55 23.4927 12.6555 -0.12303 1.09637 0.437049 -0.100283
152 1 63.55 25.3025 12.6002 1.68225 -0.637894 -0.364818 -0.716278
187 1 63.55 23.4812 14.4303 1.70658 -0.500026 -1.35336 0.961876
189 1 63.55 25.3096 14.4734 -0.0914343 -1.14298 0.193736 0.430614
150 1 63.55 27.1202 12.632 -0.117259 -0.783953 0.938845 -0.932231
156 1 63.55 28.9148 12.6661 1.70129 -0.752738 -1.1144 0.856657
191 1 63.55 27.1108 14.4147 1.70942 1.73214 0.837415 0.976969
193 1 63.55 28.921 14.4393 -0.206627 0.384481 -1.24018 -1.16
154 1 63.55 30.7244 12.5644 -0.136117 -0.495812 -0.906861 -0.538451
195 1 63.55 30.7219 14.4494 1.71237 -0.613919 -0.761317 0.602104
158 1 63.55 34.3373 12.6389 -0.0633625 -0.107833 0.177954 0.515973
160 1 63.55 32.528 12.6552 1.64482 0.186559 -1.10222 0.0161661
197 1 63.55 32.562 14.4405 -0.106497 0.750148 -0.872966 -0.157233
199 1 63.55 34.3735 14.4497 1.73587 1.24665 -0.51081 -0.447406
162 1 63.55 1.80626 16.3219 -0.112959 1.05979 -1.53359 -1.0761
164 1 63.55 0.0141626 16.3205 1.69306 -0.28809 0.113928 -0.634814
168 1 63.55 3.61213 16.2427 1.70708 -0.16023 0.757765 -0.782578
166 1 63.55 5.41129 16.2736 -0.111869 -0.669455 1.1835 -0.281834
172 1 63.55 7.26516 16.2617 1.72611 0.0990137 -0.359071 -0.300238
170 1 63.55 9.02544 16.2951 -0.0856423 -1.56111 -0.149406 1.41366
176 1 63.55 10.8283 16.2598 1.68272 -0.107883 -0.217925 -0.901906
174 1 63.55 12.6907 16.252 -0.134578 0.0547392 0.401251 0.179858
180 1 63.55 14.4789 16.2093 1.69759 -0.683414 0.766178 -1.57469
178 1 63.55 16.2575 16.3432 -0.142818 -0.150047 0.522733 0.0595481
182 1 63.55 19.8957 16.3227 -0.109346 1.17854 -0.783377 -0.148597
184 1 63.55 18.029 16.2783 1.66075 0.393761 -0.031301 -0.574282
188 1 63.55 21.6609 16.3307 1.69117 0.607607 -0.408074 0.352933
186 1 63.55 23.483 16.2476 -0.0884261 -0.471976 -0.0974139 0.0779257
192 1 63.55 25.2786 16.2728 1.72267 0.909459 0.930444 -1.6006
190 1 63.55 27.1004 16.3226 -0.0867863 -0.654175 -0.0602684 -0.382614
196 1 63.55 28.9115 16.2519 1.7223 0.631405 -0.473122 1.22858
194 1 63.55 30.6893 16.1967 -0.13447 -0.576907 -0.504508 -1.14624
198 1 63.55 34.3857 16.3029 -0.103695 -2.02121 -0.814163 -1.37783
200 1 63.55 32.5615 16.2831 1.72989 0.596509 0.445136 -0.11979
201 1 63.55 -0.0080518 18.1405 -0.126184 -0.722662 -0.069255 -0.464796
202 1 63.55 1.82875 19.9153 -0.105294 0.763588 1.05708 1.79606
203 1 63.55 1.8034 18.1071 1.66165 0.502969 -0.789722 0.417523
204 1 63.55 -0.0530073 19.8905 1.69454 -0.41798 0.313651 -1.52322
205 1 63.55 3.64389 18.124 -0.0844132 -0.282143 -1.13598 -1.26915
208 1 63.55 3.56648 19.8681 1.74729 -0.202037 0.0499464 0.398201
241 1 63.55 0.0168819 21.7085 -0.0370836 0.323898 -0.368561 -0.228613
243 1 63.55 1.7803 21.7132 1.74491 0.114248 0.263288 -0.979629
245 1 63.55 3.63491 21.6758 -0.121817 -1.33258 -0.0236362 -0.213679
206 1 63.55 5.46477 19.8853 -0.0430117 0.277335 -2.64669 1.69222
207 1 63.55 5.4472 18.0951 1.7312 -1.0807 -0.351493 0.517688
209 1 63.55 7.26754 18.0804 -0.0708565 -1.72162 -0.966961 -0.067614
212 1 63.55 7.30301 19.8552 1.7165 -0.917476 -0.0848048 -0.714663
247 1 63.55 5.4005 21.6376 1.71303 0.985858 -0.36848 0.646817
249 1 63.55 7.24901 21.6596 -0.0678977 0.779672 -0.490993 0.266397
210 1 63.55 9.09665 19.8377 -0.108171 -1.37267 0.570356 -0.758452
211 1 63.55 9.07492 18.0467 1.72907 -0.00948691 1.81418 -0.372662
213 1 63.55 10.8198 18.0858 -0.125983 -0.817158 -1.09204 -0.123932
216 1 63.55 10.8803 19.8874 1.66875 1.99544 -0.262547 0.894727
251 1 63.55 9.01998 21.6437 1.71654 0.324481 -0.647285 0.852031
253 1 63.55 10.8526 21.7182 -0.106385 -0.23287 -0.0171721 -0.736277
214 1 63.55 12.6669 19.8986 -0.14655 -0.48609 -0.0766552 1.62534
215 1 63.55 12.6852 18.0678 1.67761 -0.818473 -0.0370068 -0.802952
217 1 63.55 14.4796 18.0827 -0.116453 -0.882031 -1.17706 -0.872852
220 1 63.55 14.5204 19.9386 1.68737 0.539485 -0.175092 0.576991
255 1 63.55 12.6849 21.6724 1.62658 -0.744878 1.02011 0.451449
257 1 63.55 14.5022 21.7101 -0.177713 0.53781 -0.62587 1.78903
218 1 63.55 16.3005 19.8765 -0.132679 0.349098 0.880264 -0.124868
219 1 63.55 16.287 18.1172 1.6856 0.165357 1.72493 -0.0508874
259 1 63.55 16.2683 21.7246 1.6951 -0.419507 -0.341387 -0.152354
221 1 63.55 18.0923 18.0857 -0.106639 0.605082 1.36983 1.12296
222 1 63.55 19.8872 19.8543 -0.134752 -0.416995 -0.0499413 -0.0157105
223 1 63.55 19.8738 18.0834 1.71587 -0.0984432 -0.207733 0.0797395
224 1 63.55 18.0675 19.9514 1.67331 0.0969821 -0.598163 0.0323148
225 1 63.55 21.7103 18.1242 -0.10141 -0.810147 -0.336011 -0.091082
228 1 63.55 21.636 19.851 1.74692 -0.256561 -0.3471 0.31902
261 1 63.55 18.0962 21.6702 -0.105828 -1.24263 0.316966 1.57686
263 1 63.55 19.9082 21.6827 1.70177 -0.470064 0.985167 -0.0673051
265 1 63.55 21.7073 21.7179 -0.103631 0.136978 -0.516008 -0.0764127
226 1 63.55 23.5137 19.8878 -0.084898 0.603413 -1.17355 -0.0888334
227 1 63.55 23.4926 18.0801 1.70523 0.19208 0.940289 1.68259
229 1 63.55 25.274 18.0244 -0.0938398 0.395193 0.0796558 0.237654
232 1 63.55 25.3502 19.8897 1.69628 0.214549 0.389312 -0.894198
267 1 63.55 23.4702 21.6982 1.75578 -0.0881935 -0.651506 0.0934607
269 1 63.55 25.3177 21.6602 -0.115738 -0.222879 -0.125403 -0.627622
230 1 63.55 27.1051 19.8603 -0.144444 -1.19943 0.482686 -0.318556
231 1 63.55 27.1035 18.0227 1.78236 -1.6509 -1.06626 0.160619
233 1 63.55 28.8951 18.0807 -0.1652 0.8525 0.0221053 0.128202
236 1 63.55 28.9166 19.8744 1.72175 0.0787436 -2.42604 1.12886
271 1 63.55 27.1028 21.6956 1.71495 -0.55378 -0.7544 0.257255
273 1 63.55 28.9344 21.6174 -0.1025 -1.27245 0.555769 1.11333
234 1 63.55 30.7308 19.832 -0.115482 1.09073 -0.378291 0.335525
235 1 63.55 30.6725 18.0756 1.65189 0.169867 1.06531 0.213577
275 1 63.55 30.7139 21.7142 1.71033 0.176703 0.684363 -0.0477192
237 1 63.55 32.5714 18.0968 -0.0823876 -0.318464 0.866975 -0.278831
238 1 63.55 34.3371 19.9199 -0.100812 -1.00524 -0.736666 0.221671
239 1 63.55 34.3585 18.0948 1.73205 0.982515 0.74773 -0.994954
240 1 63.55 32.5094 19.912 1.7163 -1.36739 -0.893075 -0.473303
277 1 63.55 32.5309 21.6794 -0.092026 0.000682828 0.83944 -0.16901
279 1 63.55 34.3142 21.7085 1.72104 -0.39914 -0.077708 -1.17913
242 1 63.55 1.75147 23.483 -0.074928 0.756742 1.65979 0.547028
244 1 63.55 -0.0409227 23.5066 1.75645 0.501473 -0.725813 0.37376
248 1 63.55 3.54691 23.4818 1.72443 0.959465 -0.968891 0.795166
281 1 63.55 -0.0323998 25.3006 -0.0892557 0.335279 1.82557 -0.0488875
283 1 63.55 1.76335 25.3174 1.70164 -0.683572 -0.146672 -0.0767521
285 1 63.55 3.6214 25.2796 -0.0610374 0.684845 0.283229 0.195078
246 1 63.55 5.45723 23.489 -0.0585239 -0.12272 -1.35471 0.00945957
252 1 63.55 7.22214 23.4611 1.77487 -0.557176 -0.795535 0.364084
287 1 63.55 5.43766 25.2819 1.71183 0.978465 -0.263205 2.21914
289 1 63.55 7.32585 25.2358 -0.0331291 -0.111676 -0.0540186 0.290342
250 1 63.55 9.06897 23.4789 -0.0934975 -0.0585242 0.392701 0.0911648
256 1 63.55 10.8581 23.4891 1.69624 1.33918 0.523074 0.566298
291 1 63.55 9.0229 25.2698 1.7639 0.636156 0.196457 -0.151635
293 1 63.55 10.8121 25.3516 -0.0805935 0.932013 -0.945135 -0.946666
254 1 63.55 12.6946 23.5243 -0.137407 0.447589 -0.41729 0.52419
260 1 63.55 14.4728 23.5077 1.73515 -0.215096 -0.539613 0.13892
295 1 63.55 12.6786 25.3711 1.65556 0.519489 -0.504419 0.564201
297 1 63.55 14.4913 25.3253 -0.135468 -0.0651189 0.560139 -0.0583912
258 1 63.55 16.3288 23.5218 -0.124235 -0.412293 -0.118958 0.51927
299 1 63.55 16.2752 25.3182 1.70082 0.272466 0.283348 1.62199
262 1 63.55 19.8466 23.5486 -0.0997203 -0.765342 -0.0533959 0.92138
264 1 63.55 18.0852 23.4919 1.74874 0.265587 -0.0322102 -0.157474
268 1 63.55 21.6507 23.5271 1.67925 0.285051 -1.48368 -0.517735
301 1 63.55 18.0969 25.3496 -0.0805246 -0.66272 -0.481175 -0.898773
303 1 63.55 19.8918 25.351 1.75975 1.23744 1.28383 -0.648565
305 1 63.55 21.7013 25.2882 -0.12218 -0.660777 -0.697549 2.02363
266 1 63.55 23.526 23.4385 -0.0885906 -0.0682672 -0.258093 0.986392
272 1 63.55 25.3583 23.5001 1.72554 0.888837 0.271455 -0.723948
307 1 63.55 23.4862 25.2953 1.68655 0.694139 -1.20116 -0.333361
309 1 63.55 25.315 25.3056 -0.12833 0.185192 -0.197626 0.639899
270 1 63.55 27.1288 23.4576 -0.0851333 0.091175 -1.38766 1.53782
276 1 63.55 28.971 23.5006 1.62181 -0.568258 0.501421 -0.0385535
311 1 63.55 27.1057 25.3109 1.71729 -0.21725 0.70871 -0.0813123
313 1 63.55 28.9136 25.3269 -0.14622 -1.13519 0.899481 -0.682163
274 1 63.55 30.7849 23.5037 -0.125712 0.129732 0.718858 -0.367554
315 1 63.55 30.7036 25.328 1.69495 0.0711963 -0.825081 -0.357709
278 1 63.55 34.3763 23.48 -0.096351 0.0296615 -2.61321 -0.145348
280 1 63.55 32.5056 23.5458 1.65201 0.818041 -1.2012 -0.145493
317 1 63.55 32.5145 25.33 -0.062141 1.00967 1.70313 0.109152
319 1 63.55 34.3393 25.3108 1.72094 0.318205 -0.171477 1.02313
282 1 63.55 1.79501 27.1231 -0.0960979 1.37202 -1.3959 0.347167
284 1 63.55 -0.0126552 27.1502 1.74692 -0.356916 -0.485496 -2.12749
288 1 63.55 3.58165 27.1205 1.67198 0.19873 -0.529917 0.878182
321 1 63.55 -0.0223644 28.9322 -0.116012 0.143625 -0.351626 -0.896613
323 1 63.55 1.75475 28.9665 1.66809 1.06427 0.088983 1.14559
325 1 63.55 3.61356 28.9026 -0.095465 1.5035 0.879618 -1.39555
286 1 63.55 5.40756 27.0726 -0.10329 -1.4672 1.16577 -0.679617
292 1 63.55 7.27121 27.128 1.64675 0.234496 -1.37595 -1.02992
327 1 63.55 5.40349 28.9114 1.66788 -0.801605 -0.597766 -0.116058
329 1 63.55 7.19371 28.9631 -0.140253 -1.30492 0.989742 -0.613477
290 1 63.55 9.0462 27.1288 -0.0826049 0.85201 1.2155 -0.499253
296 1 63.55 10.8063 27.1361 1.71241 2.08355 -0.605051 1.63695
331 1 63.55 9.03144 28.9634 1.7385 -0.0283297 0.0928077 -0.433409
333 1 63.55 10.8426 28.9446 -0.0453962 -0.762371 0.566011 -0.985164
294 1 63.55 12.6251 27.1573 -0.0837338 0.261052 -0.680693 0.770587
300 1 63.55 14.4584 27.0932 1.6806 0.0812329 0.215321 -0.142249
335 1 63.55 12.6374 28.9775 1.72058 -0.021573 1.55139 0.718871
337 1 63.55 14.5022 28.922 -0.0852653 -0.372009 -0.567216 0.395035
298 1 63.55 16.2764 27.1277 -0.0977482 0.545772 0.474726 -0.362569
339 1 63.55 16.2389 28.9204 1.69368 -1.69105 0.262487 -0.79848
302 1 63.55 19.8979 27.1695 -0.0931274 1.62921 -0.908039 -0.723009
304 1 63.55 18.1056 27.1164 1.74981 -0.231908 -0.240786 0.569875
308 1 63.55 21.7361 27.1249 1.69375 1.23743 -1.49642 1.49985
341 1 63.55 18.1363 28.9483 -0.0317581 -1.05956 -0.381485 0.678531
343 1 63.55 19.9628 28.9435 1.74727 0.195646 -0.0599637 0.00404842
345 1 63.55 21.7088 28.9863 -0.110566 0.581102 -0.774049 -0.0668826
306 1 63.55 23.4475 27.1321 -0.13636 1.38206 1.09418 0.736304
312 1 63.55 25.2934 27.151 1.70208 0.321031 0.247127 0.187025
347 1 63.55 23.4902 28.9371 1.67453 1.11397 0.733669 0.424405
349 1 63.55 25.3014 28.9316 -0.0657448 0.905004 -0.672802 0.0999232
310 1 63.55 27.1481 27.136 -0.108604 -1.56199 -0.830544 0.000330917
316 1 63.55 28.8886 27.15 1.73326 0.37927 0.619892 -0.268234
351 1 63.55 27.0841 28.9507 1.7299 1.34825 -1.03493 -0.125182
353 1 63.55 28.9181 28.9383 -0.141512 -0.58878 -1.29714 -0.261126
314 1 63.55 30.7519 27.1253 -0.0835624 1.17833 -0.187794 0.246169
355 1 63.55 30.677 28.9414 1.72891 1.54018 0.120941 -1.60996
318 1 63.55 34.3536 27.1034 -0.053589 -1.11605 0.506828 -0.154751
320 1 63.55 32.5235 27.1701 1.66738 -0.151071 0.980713 1.0401
357 1 63.55 32.5299 28.9007 -0.127343 0.268755 0.36215 1.07573
359 1 63.55 34.3491 28.8963 1.75625 1.07525 -1.66471 -0.0746811
322 1 63.55 1.83351 30.7774 -0.115232 0.25424 -1.10613 1.82048
324 1 63.55 -0.0456878 30.7782 1.7693 -0.829284 -1.01113 -2.04648
328 1 63.55 3.616 30.7477 1.71353 0.0441923 -0.17995 -0.18248
326 1 63.55 5.39868 30.7131 -0.101683 -0.740638 0.476213 1.66961
332 1 63.55 7.20103 30.7793 1.70964 -0.58609 -0.210901 -0.357306
330 1 63.55 9.06218 30.7031 -0.105132 -0.748956 0.0925889 -0.667025
336 1 63.55 10.8626 30.8056 1.70748 -0.361031 -0.506329 0.695025
334 1 63.55 12.706 30.7915 -0.160383 0.615635 0.277502 -0.453963
340 1 63.55 14.4648 30.7869 1.70809 0.193888 0.344235 -0.0672377
338 1 63.55 16.2521 30.7567 -0.13188 -0.36008 0.584831 1.04739
342 1 63.55 19.8888 30.749 -0.0566179 0.06481 0.0961891 -0.634496
344 1 63.55 18.0599 30.7474 1.70958 -1.83592 1.54569 -0.611038
348 1 63.55 21.7168 30.7794 1.72796 -0.662978 -2.3839 -0.136833
346 1 63.55 23.5349 30.7257 -0.132519 -0.417925 -0.633289 1.01807
352 1 63.55 25.344 30.7635 1.69352 1.11658 -0.143719 0.147956
350 1 63.55 27.1545 30.7087 -0.124897 -0.188468 -0.696714 0.295513
356 1 63.55 28.8952 30.6834 1.68994 0.190894 -1.01823 -0.138066
354 1 63.55 30.7012 30.719 -0.126993 0.0171893 -0.0237224 1.52902
358 1 63.55 34.3606 30.7732 -0.0602707 -1.37472 0.0274454 -0.351285
360 1 63.55 32.5287 30.732 1.69051 0.20825 -0.242125 -0.227371
361 1 63.55 -0.0358481 32.5709 -0.105144 -0.968513 -0.482698 0.818858
362 1 63.55 1.77275 34.3845 -0.0974466 0.973174 0.017161 0.996196
363 1 63.55 1.79471 32.6019 1.72522 0.618857 0.0838315 -0.898063
364 1 63.55 -0.0261032 34.3612 1.70403 0.118065 -0.634331 1.84717
365 1 63.55 3.6381 32.5925 -0.0919003 -0.0253035 -0.124305 0.447232
368 1 63.55 3.60807 34.374 1.70326 -1.27404 0.0122215 -0.408836
366 1 63.55 5.51707 34.3586 -0.113483 0.0772733 1.17875 -0.572359
367 1 63.55 5.46831 32.5812 1.71749 -0.106454 0.86489 -0.239766
369 1 63.55 7.21671 32.5637 -0.104723 -0.956206 -0.516247 -1.57913
372 1 63.55 7.23074 34.3934 1.77626 1.18044 1.2822 -0.835127
370 1 63.55 9.04347 34.3546 -0.102554 1.82973 0.398209 1.53165
371 1 63.55 9.01738 32.5815 1.72052 0.164955 0.781528 1.03472
373 1 63.55 10.7897 32.5558 -0.138258 0.186089 -0.931114 0.655633
376 1 63.55 10.8604 34.3488 1.74551 -0.526563 -0.0512143 -1.13582
374 1 63.55 12.6643 34.3725 -0.0906535 -1.29352 0.107541 -1.18224
375 1 63.55 12.664 32.5893 1.65612 -0.812631 -0.462413 -0.339272
377 1 63.55 14.5135 32.5506 -0.156114 1.48472 -0.259186 -0.365957
380 1 63.55 14.4573 34.3756 1.68562 -0.465887 0.781885 -0.517444
378 1 63.55 16.2673 34.386 -0.115885 0.474272 0.690952 -0.409466
379 1 63.55 16.2535 32.5906 1.73041 0.741647 1.4039 1.02574
381 1 63.55 18.0076 32.5645 -0.113196 -0.070724 -0.313784 -0.0814417
382 1 63.55 19.8418 34.2882 -0.118612 -0.00473984 0.211736 0.0390022
383 1 63.55 19.8773 32.5766 1.69551 -0.182271 -0.761045 -0.0538133
384 1 63.55 18.0534 34.3782 1.68911 -0.69908 -1.22415 -0.279965
385 1 63.55 21.7038 32.529 -0.128434 -1.27841 0.175673 -0.385399
388 1 63.55 21.6671 34.3625 1.69326 -1.2156 -0.267976 -0.970063
386 1 63.55 23.4985 34.3225 -0.0985631 0.288398 0.469143 0.314412
387 1 63.55 23.5185 32.5611 1.66862 0.892807 0.0159224 -0.0274403
389 1 63.55 25.3595 32.5828 -0.128772 1.05492 -0.0198099 -0.329568
392 1 63.55 25.3013 34.3573 1.74892 0.248434 0.769508 0.667695
390 1 63.55 27.1853 34.3307 -0.0979647 0.81726 -1.03307 0.0331817
391 1 63.55 27.1238 32.5273 1.68982 -1.21402 0.319621 0.617269
393 1 63.55 28.9402 32.5057 -0.0868919 0.530496 0.301021 -1.55386
396 1 63.55 28.9142 34.3574 1.67805 0.358786 -1.80538 0.610494
394 1 63.55 30.6911 34.3776 -0.116343 -1.41967 1.88543 -0.701113
395 1 63.55 30.6815 32.5393 1.71688 0.374141 0.83212 -0.438107
397 1 63.55 32.4781 32.5552 -0.102206 0.344876 0.842563 0.842406
398 1 63.55 34.3006 34.3337 -0.0528461 0.286786 1.01458 -0.328859
399 1 63.55 34.2949 32.5615 1.66981 1.19339 1.8437 -0.693833
400 1 63.55 32.4375 34.3644 1.68499 0.370181 0.261185 0.554045
401 1 63.55 -0.038632 -0.0459612 3.49974 -0.89045 -0.222439 0.602826
402 1 63.55 1.76582 1.71514 3.54939 1.33234 -0.0731906 0.221337
403 1 63.55 1.79229 -0.0687732 5.33532 -0.402233 -2.41207 -0.051744
404 1 63.55 0.000693877 1.76857 5.30653 -0.33254 0.905004 -0.37411
405 1 63.55 3.61076 0.00956028 3.56577 0.0387042 -1.56079 1.18989
408 1 63.55 3.56407 1.79227 5.38381 0.841643 0.41745 -0.807552
441 1 63.55 0.0304805 3.53481 3.4637 0.319395 0.31136 0.921897
443 1 63.55 1.76869 3.58854 5.35541 1.68131 -1.30266 0.610748
445 1 63.55 3.56341 3.55252 3.51751 0.474864 1.89458 0.111879
406 1 63.55 5.39059 1.8103 3.53166 -0.153521 0.412639 -0.38743
407 1 63.55 5.36186 -0.00622383 5.33429 0.0287945 -0.420603 0.872147
409 1 63.55 7.18892 0.0373873 3.59369 0.547908 0.946164 0.69454
412 1 63.55 7.20332 1.75555 5.37443 -0.257031 0.681182 -0.34917
447 1 63.55 5.42819 3.59218 5.32225 -1.17988 -0.178946 0.0819856
449 1 63.55 7.22975 3.62262 3.52691 -1.19626 0.245135 -0.0662006
410 1 63.55 9.0083 1.8011 3.56123 0.750003 1.59004 1.11259
411 1 63.55 8.99508 0.0135355 5.34479 -0.311296 -0.343174 1.74395
413 1 63.55 10.853 0.0237493 3.53666 0.806389 -0.921447 0.214066
416 1 63.55 10.8635 1.74673 5.35199 -1.43321 1.43458 -0.648716
451 1 63.55 9.02364 3.63711 5.38401 -1.2311 0.612135 -0.673953
453 1 63.55 10.8796 3.61778 3.4894 -0.42347 -2.0071 -0.0730298
414 1 63.55 12.5984 1.81213 3.57035 0.401112 0.195131 -0.99728
415 1 63.55 12.6382 -0.0607332 5.35676 -0.305321 -0.396472 0.092724
417 1 63.55 14.4053 0.0109538 3.57146 1.28815 0.466392 -0.896983
420 1 63.55 14.479 1.76271 5.39736 -0.0441121 0.213159 0.704083
455 1 63.55 12.6758 3.58698 5.3712 -0.114267 -0.358401 1.32779
457 1 63.55 14.4112 3.58965 3.59085 -0.508396 0.451161 0.471632
418 1 63.55 16.229 1.79405 3.54937 0.43331 -0.816401 -0.800245
419 1 63.55 16.2969 -0.0623317 5.34137 -0.778747 1.17076 0.448221
459 1 63.55 16.2316 3.6121 5.36318 -0.306723 -0.279333 -1.57987
421 1 63.55 18.0718 0.0156984 3.5495 0.683248 -1.01989 0.399007
422 1 63.55 19.8943 1.84655 3.51926 0.327712 -0.360121 -0.182015
423 1 63.55 19.8821 -0.0264747 5.30827 -0.321904 0.472421 -0.475593
424 1 63.55 18.0928 1.80411 5.3407 -0.132634 -0.687268 -0.432367
425 1 63.55 21.6743 -0.0299671 3.57663 0.532279 0.930242 -1.17401
428 1 63.55 21.7119 1.79211 5.35625 0.783128 0.84876 0.770249
461 1 63.55 18.0776 3.63157 3.56406 -0.393298 -1.26349 0.541714
463 1 63.55 19.9051 3.61224 5.36106 2.07165 1.789 1.30943
465 1 63.55 21.6503 3.65126 3.52864 1.34313 -0.550828 0.514091
426 1 63.55 23.4298 1.79872 3.53434 -1.81854 0.407651 -1.05032
427 1 63.55 23.5517 -0.0870118 5.31223 0.365292 0.526779 -0.401466
429 1 63.55 25.2818 0.0224379 3.56332 1.39641 -0.100249 0.506041
432 1 63.55 25.2793 1.77572 5.38003 -0.0185438 0.596725 1.06986
467 1 63.55 23.4828 3.56891 5.38209 0.329471 -1.00139 0.148898
469 1 63.55 25.2976 3.56645 3.55364 -1.32056 0.775284 -0.412273
430 1 63.55 27.0469 1.77679 3.55646 0.379676 -0.503977 -0.739528
431 1 63.55 27.0914 -0.0159749 5.39842 0.445389 1.81583 0.52922
433 1 63.55 28.8579 -0.0018663 3.5041 -0.250588 -0.602734 -0.555511
436 1 63.55 28.8768 1.80864 5.26419 -0.285934 -0.230984 -0.498044
471 1 63.55 27.0774 3.60615 5.30316 -0.0023511 -0.525265 0.85
473 1 63.55 28.9228 3.59901 3.47553 0.450794 0.334661 -0.321536