ITEM: TIMESTEP
2500
ITEM: NUMBER OF ATOMS
20000
ITEM: BOX BOUNDS pp pp pp
-1.1690430215825387e-02 3.6161690430215927e+01
-1.0988429366353358e-02 3.6160988429366171e+01
-5.9908256064190368e-02 1.8080990825606500e+02
ITEM: ATOMS id type mass x y z vx vy vz
1 1 63.55 0.00358832 -0.0198506 -0.0522857 0.0322228 -1.34888 -1.16771
2 1 63.55 1.83521 1.84411 -0.0710382 -0.333638 0.0453216 -0.77179
3 1 63.55 1.79956 -0.0221337 1.78325 -0.0589463 -0.0361581 0.84786
4 1 63.55 0.0349085 1.82658 1.76221 0.669614 1.26966 -0.0419368
5 1 63.55 3.6378 0.00806521 -0.0627608 1.05367 -0.68292 0.0139869
8 1 63.55 3.6021 1.82726 1.73383 0.261524 0.645049 -0.81852
41 1 63.55 0.077713 3.61058 -0.0946587 -0.727013 -0.11558 -0.658501
43 1 63.55 1.85203 3.59123 1.75754 0.309545 1.65595 0.835598
45 1 63.55 3.62326 3.60604 -0.0798157 -0.690112 -1.039 0.555322
6 1 63.55 5.40417 1.77287 -0.105909 -0.451267 0.329696 -0.62403
7 1 63.55 5.40837 -0.0168219 1.78578 -0.74652 1.47282 0.997854
9 1 63.55 7.21317 -0.0639464 -0.0439396 -0.255649 0.393839 1.99693
12 1 63.55 7.20418 1.78933 1.73437 -1.33395 0.616743 0.725053
47 1 63.55 5.44314 3.5858 1.74628 -0.529187 0.625754 -0.35332
49 1 63.55 7.233 3.5981 -0.0675037 -1.50318 0.760215 -0.300015
10 1 63.55 9.02456 1.73478 -0.0977935 0.883737 0.784369 -0.147901
11 1 63.55 8.99385 -0.0952067 1.77905 -0.274375 0.316536 -0.0554108
13 1 63.55 10.8505 -0.0393948 -0.0820016 0.287051 -0.517569 -0.939013
16 1 63.55 10.7845 1.75565 1.70495 -0.179567 -0.52961 -0.603621
51 1 63.55 9.0699 3.586 1.73764 -1.09162 -0.228069 0.122646
53 1 63.55 10.9074 3.6159 -0.0255206 -0.0475483 -0.0773791 -0.119425
14 1 63.55 12.725 1.78617 -0.0509755 0.512033 -0.503573 0.515318
15 1 63.55 12.6602 -0.00692006 1.80486 0.646024 -0.226113 1.13179
17 1 63.55 14.4701 -0.0188534 -0.0710363 0.0891624 0.35998 0.229616
20 1 63.55 14.4366 1.79115 1.72616 2.11885 -0.802891 1.00452
55 1 63.55 12.6661 3.59691 1.7462 0.203128 1.16413 0.969079
57 1 63.55 14.4836 3.62339 -0.0855689 -0.0963763 -0.583027 -0.240275
18 1 63.55 16.2114 1.77666 -0.0870086 0.57872 0.467228 0.235646
19 1 63.55 16.2383 -0.0367414 1.67961 -0.457099 -0.462051 -0.33392
59 1 63.55 16.2782 3.63412 1.73785 0.154373 -0.346073 -1.16673
21 1 63.55 18.045 -0.019034 -0.0500991 -1.80151 -0.091635 -0.140815
22 1 63.55 19.8643 1.80333 -0.0544003 1.20764 -0.278637 0.652942
23 1 63.55 19.819 0.00635323 1.73747 -0.0615482 0.378365 0.263282
24 1 63.55 18.0675 1.78379 1.71664 -0.901241 0.377162 0.581
25 1 63.55 21.7019 -0.0207535 -0.0503592 -0.526534 0.75141 1.27368
28 1 63.55 21.7034 1.7882 1.73881 1.27346 -0.305406 -1.21326
61 1 63.55 18.0612 3.63326 -0.0541422 -0.150685 -0.706981 0.119069
63 1 63.55 19.8752 3.63405 1.67661 0.347456 0.151998 0.0513024
65 1 63.55 21.6876 3.65404 -0.0376374 0.227014 0.477149 -1.24561
26 1 63.55 23.5161 1.79594 -0.049121 -0.0126259 -0.801287 -1.07464
27 1 63.55 23.5031 -0.0343006 1.70021 -0.267485 -0.373962 -0.193679
29 1 63.55 25.3254 -0.00429897 -0.0929127 0.236088 -0.969967 1.16396
32 1 63.55 25.3169 1.76473 1.72681 -0.849533 -0.512136 0.749998
67 1 63.55 23.5336 3.61872 1.73394 0.409376 0.504366 -0.36839
69 1 63.55 25.2679 3.60734 -0.0816872 0.236456 -0.911925 -0.322414
30 1 63.55 27.128 1.82295 -0.0778767 1.87039 -0.7878 -0.459742
31 1 63.55 27.119 -0.0258854 1.76455 0.9428 -0.200581 -1.49115
33 1 63.55 28.968 0.0526845 -0.0581318 -0.130992 0.861893 -0.811402
36 1 63.55 28.8852 1.82741 1.70464 0.270028 0.595266 0.519856
71 1 63.55 27.1021 3.62208 1.81102 0.174838 -0.917272 -0.140853
73 1 63.55 28.8805 3.67429 -0.0872305 0.284818 1.2126 0.743043
34 1 63.55 30.778 1.84777 -0.0625924 -0.362336 0.742391 0.716234
35 1 63.55 30.7181 0.0157906 1.73365 0.625147 -0.481672 -0.50262
75 1 63.55 30.7502 3.62999 1.67985 1.01305 0.368845 0.155514
37 1 63.55 32.5951 0.0186634 -0.056776 0.598522 -1.51691 1.40403
38 1 63.55 34.3875 1.83641 -0.0715248 0.218865 -0.0623052 -0.983399
39 1 63.55 34.3365 -0.0165771 1.7722 -0.110164 -0.0866277 1.13994
40 1 63.55 32.5902 1.84993 1.75003 -0.536297 0.497352 0.826366
77 1 63.55 32.6046 3.61851 -0.0189807 -0.767276 -0.820672 -0.807281
79 1 63.55 34.4337 3.62039 1.72525 -1.16709 1.37601 0.430777
42 1 63.55 1.81256 5.45814 -0.0771576 -0.385958 1.36994 1.1701
44 1 63.55 0.0402356 5.42546 1.74773 0.0665001 -0.307466 1.0814
48 1 63.55 3.60557 5.45098 1.72811 0.947103 0.826312 0.793634
81 1 63.55 -0.00673393 7.27887 -0.0206452 -0.300456 0.394349 1.18326
83 1 63.55 1.84031 7.28915 1.75097 1.35664 -0.514086 0.857532
85 1 63.55 3.63616 7.26139 -0.0329128 0.885629 -0.229209 -0.624898
46 1 63.55 5.40358 5.46104 -0.0417431 -0.18323 -0.395728 -1.21487
52 1 63.55 7.23522 5.38843 1.74346 -0.967832 -0.75039 1.32506
87 1 63.55 5.44133 7.19097 1.7838 -1.13694 1.43007 -0.353239
89 1 63.55 7.18226 7.22558 -0.0427006 0.962635 0.184501 0.452287
50 1 63.55 9.06031 5.48678 -0.0516589 -0.348621 1.02088 0.753507
56 1 63.55 10.8673 5.46546 1.72236 0.222487 1.18498 -1.16572
91 1 63.55 9.02411 7.25994 1.74472 1.10421 -1.19406 -1.55209
93 1 63.55 10.9315 7.25024 -0.122124 -1.15798 -0.427572 -2.53918
54 1 63.55 12.657 5.42995 -0.0780201 0.155647 0.0516192 0.756658
60 1 63.55 14.4553 5.42907 1.7243 0.966658 0.043492 -0.7152
95 1 63.55 12.6554 7.23383 1.77674 1.47684 -0.854616 -1.5043
97 1 63.55 14.442 7.18777 -0.0705446 -0.000562838 0.89692 1.02099
58 1 63.55 16.242 5.41895 -0.0709602 -0.0116346 2.03294 -0.747226
99 1 63.55 16.2352 7.24666 1.71481 -0.902494 0.571317 -0.745271
62 1 63.55 19.8932 5.51702 -0.086539 0.231734 0.357279 -0.454038
64 1 63.55 18.0057 5.43383 1.74401 -0.195871 -0.31148 -0.212077
68 1 63.55 21.7108 5.50468 1.73927 -1.06909 0.760196 -0.706391
101 1 63.55 18.0379 7.28432 -0.0653487 -0.629723 0.399588 -2.10248
103 1 63.55 19.8366 7.22976 1.74722 -0.92453 0.538785 -0.485251
105 1 63.55 21.7451 7.26071 -0.00975259 0.0314999 0.953761 0.945646
66 1 63.55 23.5299 5.45885 -0.0633979 2.14777 -1.37368 0.126273
72 1 63.55 25.33 5.4607 1.71744 -0.563741 0.2555 -0.892145
107 1 63.55 23.542 7.24931 1.73604 -0.192491 0.47053 -2.34927
109 1 63.55 25.3437 7.27422 -0.128656 -0.087549 -0.207278 -0.494152
70 1 63.55 27.0932 5.42217 -0.0964837 0.461068 -2.49789 0.619887
76 1 63.55 28.8931 5.41613 1.71043 0.114527 0.670813 -1.51974
111 1 63.55 27.1116 7.20886 1.75163 -0.102585 -0.733925 -0.284556
113 1 63.55 28.9026 7.21902 -0.0465269 1.00617 0.0140346 -0.53819
74 1 63.55 30.7547 5.40656 -0.0787418 1.20535 0.533279 -1.2012
115 1 63.55 30.7528 7.15988 1.77684 1.25082 -0.866638 -1.18046
78 1 63.55 34.4085 5.38657 0.019337 1.03072 0.77302 0.503974
80 1 63.55 32.5727 5.38877 1.7795 0.72361 -0.146063 0.471744
117 1 63.55 32.5377 7.16807 -0.0467482 1.29348 0.404141 -0.411992
119 1 63.55 34.3875 7.22503 1.75845 0.0391527 -0.122951 0.495739
82 1 63.55 1.8512 9.03647 -0.096603 -1.22843 1.04492 0.146503
84 1 63.55 -0.0358217 9.09805 1.77851 -0.869493 -1.15325 1.60717
88 1 63.55 3.64348 9.08368 1.7217 0.835238 1.15672 -0.135796
121 1 63.55 -0.0321993 10.7965 -0.0490449 -0.213787 0.526301 0.80756
123 1 63.55 1.81453 10.8452 1.72153 -0.941156 -0.506669 -0.456373
125 1 63.55 3.61213 10.8742 -0.0756536 0.813355 -1.08935 0.0499521
86 1 63.55 5.38386 9.06038 -0.0680592 -0.190714 0.553286 -0.113675
92 1 63.55 7.24968 9.04801 1.72563 -0.426859 0.249909 0.711941
127 1 63.55 5.47137 10.9292 1.81496 0.932509 -0.187779 -0.827306
129 1 63.55 7.22566 10.8603 -0.0713035 -0.263469 -0.248537 0.23337
90 1 63.55 9.03155 9.02414 -0.0263457 0.541957 -0.70779 -0.57016
96 1 63.55 10.832 9.04454 1.74414 0.0452756 -0.437332 -0.427379
131 1 63.55 9.00854 10.8486 1.7963 0.603919 -1.23028 -0.491749
133 1 63.55 10.7991 10.8416 -0.0883785 -0.786819 -1.0284 -0.12631
94 1 63.55 12.7359 9.02004 -0.000182167 -0.752836 -0.303654 1.80806
100 1 63.55 14.4642 9.0816 1.76377 -0.0186909 0.423387 -0.584167
135 1 63.55 12.6434 10.8841 1.71073 -0.754379 -0.724224 0.022116
137 1 63.55 14.4454 10.9125 -0.069123 -0.969118 -0.14681 0.287217
98 1 63.55 16.3044 8.99831 -0.059163 -0.711728 -0.390599 1.45374
139 1 63.55 16.3097 10.7839 1.70587 1.32196 -0.846036 -1.21559
102 1 63.55 19.8785 9.01461 -0.0613267 -0.651648 -1.83047 0.753206
104 1 63.55 18.1128 9.08725 1.79778 0.41316 -1.00578 -0.362912
108 1 63.55 21.7165 9.00714 1.7374 1.28438 0.694716 1.53098
141 1 63.55 18.1242 10.864 -0.0525126 -0.00544298 2.37602 0.780575
143 1 63.55 19.9197 10.8272 1.7252 1.00915 0.44676 -0.530931
145 1 63.55 21.7343 10.8671 -0.0361981 0.727398 0.188565 -0.456382
106 1 63.55 23.556 9.10561 -0.0836886 -0.042069 0.0147549 -2.54837
112 1 63.55 25.3402 9.09714 1.75008 0.352859 -1.01332 0.495721
147 1 63.55 23.5013 10.8822 1.73953 -0.274542 -0.15597 -0.778526
149 1 63.55 25.3861 10.8614 -0.122381 -0.59524 0.721002 1.75329
110 1 63.55 27.1167 9.04249 -0.112671 0.0312561 -0.056897 0.997353
116 1 63.55 28.9039 9.06863 1.73259 -0.0840922 0.285143 -0.105274
151 1 63.55 27.1411 10.873 1.76094 0.0654635 -0.358839 0.688412
153 1 63.55 28.8975 10.865 -0.0828239 -0.230655 0.719763 -1.10934
114 1 63.55 30.7051 8.98912 -0.0421624 0.681241 0.47165 0.191471
155 1 63.55 30.6903 10.8226 1.74007 -0.439235 -0.309232 1.12537
118 1 63.55 34.3705 9.05746 -0.0318769 1.38661 1.00685 -2.51841
120 1 63.55 32.578 9.04396 1.72701 -0.910615 -0.00123257 -1.16672
157 1 63.55 32.5588 10.8333 -0.0688353 -1.03182 -0.80071 -0.219961
159 1 63.55 34.3646 10.9 1.81386 0.702457 -0.219377 -0.507571
122 1 63.55 1.79475 12.6452 -0.0617264 -0.0712797 0.324439 -0.296776
124 1 63.55 -0.0260223 12.609 1.74827 -1.0028 -1.08817 -0.709391
128 1 63.55 3.56952 12.7224 1.76039 -0.20022 1.14179 0.212985
161 1 63.55 -0.0203684 14.4258 -0.0632622 -0.925546 0.15377 1.18762
163 1 63.55 1.77096 14.4443 1.70617 1.82704 -0.271851 0.252483
165 1 63.55 3.57574 14.4468 -0.0517941 1.14276 -0.235059 1.39524
126 1 63.55 5.40581 12.6897 -0.0660691 -0.442944 -0.00169225 -0.431075
132 1 63.55 7.22019 12.6648 1.77425 1.67215 -1.47749 -0.482911
167 1 63.55 5.42787 14.4919 1.76689 2.11655 -0.0684714 0.00915042
169 1 63.55 7.20918 14.501 -0.0534634 -0.335822 -0.777265 -0.00463577
130 1 63.55 9.0254 12.6595 -0.00595122 -0.923044 0.429962 0.92383
136 1 63.55 10.8194 12.687 1.73778 -0.174768 -0.798638 1.31736
171 1 63.55 9.02773 14.5229 1.77457 1.20568 -1.25586 -1.49368
173 1 63.55 10.8262 14.4642 -0.0742899 0.929019 -0.678168 -0.779826
134 1 63.55 12.6519 12.7064 -0.0867254 0.229443 -2.10758 0.12006
140 1 63.55 14.4704 12.6854 1.7658 -0.718419 0.250925 0.118419
175 1 63.55 12.6138 14.4885 1.74236 0.361651 -0.289666 0.941929
177 1 63.55 14.4781 14.4492 -0.0376502 0.518731 0.114169 0.802095
138 1 63.55 16.2868 12.6603 -0.0319762 0.523499 -1.09929 -0.577788
179 1 63.55 16.3359 14.4484 1.75497 0.41549 -0.0926493 0.98684
142 1 63.55 19.9497 12.6832 -0.0666003 -0.843527 -0.139766 0.167455
144 1 63.55 18.1599 12.6297 1.7159 -0.710519 -0.430368 -0.563598
148 1 63.55 21.7034 12.6172 1.71688 -0.430124 0.889053 0.109968
181 1 63.55 18.0739 14.5444 -0.089726 -0.548899 -0.313869 -0.13359
183 1 63.55 19.9512 14.4638 1.73195 -0.137755 -0.313061 0.24287
185 1 63.55 21.7251 14.5289 -0.114663 -0.413221 0.237224 0.226207
146 1 63.55 23.5701 12.6356 -0.107604 -0.0121778 0.0606032 0.177367
152 1 63.55 25.318 12.6404 1.77554 1.3699 0.82544 -0.129402
187 1 63.55 23.4855 14.4685 1.71379 1.31193 1.99714 -0.911693
189 1 63.55 25.2985 14.4545 -0.0674306 1.06629 0.101564 -0.110855
150 1 63.55 27.0897 12.6864 -0.0734157 -0.623034 0.209677 0.713083
156 1 63.55 28.9114 12.7168 1.72587 -0.160825 -0.623586 0.373048
191 1 63.55 27.0973 14.4288 1.73102 -1.04627 0.704547 0.0369626
193 1 63.55 28.9368 14.5002 -0.0712422 -1.43274 -0.953242 -0.655907
154 1 63.55 30.7426 12.6283 -0.0352891 -0.878897 -0.819188 1.39533
195 1 63.55 30.7448 14.4783 1.76043 -0.00329792 -0.679392 0.310599
158 1 63.55 34.3988 12.6129 -0.10242 -0.253973 -0.634581 0.553802
160 1 63.55 32.5196 12.6529 1.7498 -0.329319 0.100544 -0.0615611
197 1 63.55 32.5297 14.4151 -0.0339097 -0.157232 -0.687057 -1.10952
199 1 63.55 34.3227 14.4731 1.73555 -0.574867 0.576431 -0.861561
162 1 63.55 1.82432 16.2703 -0.10113 0.200507 -0.498629 0.0385424
164 1 63.55 0.0361069 16.2656 1.73873 0.524599 -1.61609 -0.02144
168 1 63.55 3.5648 16.3028 1.72252 -0.370613 -0.278777 -0.634262
166 1 63.55 5.35159 16.2952 -0.0708436 1.2869 0.233966 -0.597249
172 1 63.55 7.18169 16.3055 1.73238 1.0869 -1.10498 0.87947
170 1 63.55 9.03776 16.2727 -0.0498773 0.372377 0.246107 -0.404884
176 1 63.55 10.8096 16.3152 1.83472 -1.53532 -0.25784 -0.560731
174 1 63.55 12.6658 16.2802 -0.0133987 -0.209581 0.287686 -0.551989
180 1 63.55 14.5049 16.257 1.7357 0.414452 -1.03896 1.07705
178 1 63.55 16.3056 16.2944 -0.0743176 -0.0898747 0.290121 0.962881
182 1 63.55 19.9284 16.2501 -0.0706585 -1.56417 -1.09817 -0.651075
184 1 63.55 18.1031 16.2637 1.75606 -0.346416 0.597558 -0.739354
188 1 63.55 21.6737 16.3025 1.80396 -0.612964 -0.280931 -1.97213
186 1 63.55 23.4252 16.3029 -0.0709245 -0.167298 0.743463 1.72516
192 1 63.55 25.3126 16.269 1.78624 -0.49484 -1.24447 -0.0148285
190 1 63.55 27.0905 16.2443 -0.0701163 0.853397 0.84734 1.02
196 1 63.55 28.9495 16.2707 1.72421 -0.540901 0.15345 0.258618
194 1 63.55 30.7718 16.2992 -0.0723041 0.733094 -0.0803829 1.911
198 1 63.55 34.364 16.2775 -0.0438605 -0.372346 1.22708 0.169629
200 1 63.55 32.567 16.2999 1.73799 0.364029 -0.0766062 -0.68799
201 1 63.55 -0.00264695 18.0498 -0.0395947 -0.61407 -1.32678 0.166892
202 1 63.55 1.83405 19.9044 -0.0498086 -0.858573 -0.849418 0.944688
203 1 63.55 1.82309 18.0374 1.7542 -0.104338 0.710454 -0.820419
204 1 63.55 0.00532984 19.8815 1.72118 -0.564429 -0.598659 0.7829
205 1 63.55 3.59513 18.1371 -0.0646446 0.392754 0.61324 -0.846518
208 1 63.55 3.63055 19.8826 1.77566 0.844775 -0.753463 0.0386966
241 1 63.55 -0.0206149 21.6779 -0.0848092 0.896972 -0.607781 -0.244736
243 1 63.55 1.86383 21.6592 1.75287 0.579983 1.87814 -1.04799
245 1 63.55 3.62185 21.6887 -0.109115 1.30834 0.0117676 1.56998
206 1 63.55 5.42162 19.9117 -0.0478969 -1.11835 -0.17602 -0.476287
207 1 63.55 5.40301 18.085 1.73848 1.32772 -1.01532 1.11176
209 1 63.55 7.23122 18.0843 -0.0845041 -0.400107 -1.21087 0.00406954
212 1 63.55 7.23554 19.8432 1.73822 -0.022664 -0.688972 -0.212911
247 1 63.55 5.41452 21.706 1.74446 -0.152682 -0.369978 -0.00332908
249 1 63.55 7.23839 21.7175 0.0225673 -0.952312 1.46454 1.43316
210 1 63.55 9.04547 19.9107 -0.066505 -0.472321 -0.428301 0.457601
211 1 63.55 9.03232 18.1221 1.77903 -0.536734 -0.928314 -0.0383783
213 1 63.55 10.8658 18.1093 -0.0278303 -1.13069 0.00156878 0.392609
216 1 63.55 10.8659 19.8059 1.78708 0.0931671 1.4863 -0.458308
251 1 63.55 9.07815 21.7222 1.82628 0.841169 0.678265 -0.245212
253 1 63.55 10.8567 21.6992 -0.0141143 -0.178936 -0.525028 0.552899
214 1 63.55 12.6314 19.888 -0.0864876 0.093323 -0.784984 0.11306
215 1 63.55 12.7304 18.0879 1.73163 0.130304 -0.84594 -0.314476
217 1 63.55 14.5002 18.0912 -0.100275 -0.913869 0.497245 0.166427
220 1 63.55 14.5049 19.9022 1.7246 0.552801 0.137569 -0.0470938
255 1 63.55 12.6786 21.6602 1.74899 -0.765801 -0.558919 0.323827
257 1 63.55 14.5306 21.6902 -0.057824 -0.674749 0.17319 -0.0139438
218 1 63.55 16.3273 19.8349 -0.121928 -1.40631 -0.92487 -0.266581
219 1 63.55 16.2354 18.089 1.7736 -0.588826 0.801806 0.418165
259 1 63.55 16.2929 21.6614 1.71462 -0.268746 0.18544 -0.77559
221 1 63.55 18.1205 18.114 -0.0598383 -0.490273 0.518439 0.445653
222 1 63.55 19.8916 19.8833 -0.0669208 -0.490275 -0.366924 0.0458954
223 1 63.55 19.8275 18.0342 1.80412 0.711623 1.1576 -1.41561
224 1 63.55 18.1126 19.8817 1.73776 0.624163 -0.0836487 1.06099
225 1 63.55 21.6686 18.0646 -0.0351054 1.40922 0.331728 -0.964726
228 1 63.55 21.7197 19.8774 1.73193 -0.315869 0.590215 0.0383487
261 1 63.55 18.1328 21.6778 -0.0788051 0.78384 -0.784238 -0.939448
263 1 63.55 19.8671 21.6621 1.77967 1.25433 0.174776 -0.878227
265 1 63.55 21.6822 21.6522 -0.0742271 0.310623 0.555519 -1.30005
226 1 63.55 23.5014 19.8915 -0.0345329 -1.10189 0.234373 -0.0111016
227 1 63.55 23.5557 18.0973 1.73682 0.574976 0.933282 -0.00478717
229 1 63.55 25.3236 18.0755 -0.151773 0.111099 0.458776 0.922903
232 1 63.55 25.3066 19.8867 1.75399 -0.198133 0.0923345 0.607666
267 1 63.55 23.4729 21.7138 1.71275 0.345698 0.803606 -0.346875
269 1 63.55 25.2959 21.7127 -0.0305464 0.299942 0.976929 -0.374328
230 1 63.55 27.085 19.8516 -0.0461952 -0.156751 0.0768456 1.42656
231 1 63.55 27.1371 18.0713 1.65147 0.462894 0.277159 0.747246
233 1 63.55 28.8949 18.0534 -0.132081 -0.458716 -0.463178 0.622943
236 1 63.55 28.937 19.8917 1.70409 -0.976498 -0.4934 0.886825
271 1 63.55 27.1369 21.7469 1.77573 -1.14272 1.0845 0.750559
273 1 63.55 28.9463 21.671 -0.0336818 -0.884256 -1.50479 -0.740373
234 1 63.55 30.737 19.8722 -0.111942 -0.839954 0.509728 0.442321
235 1 63.55 30.7348 18.1011 1.66794 -0.327752 -0.137494 -0.835843
275 1 63.55 30.7568 21.7158 1.6767 0.573307 0.953916 0.234258
237 1 63.55 32.5255 18.1293 -0.0505297 0.598073 0.00284482 0.920883
238 1 63.55 34.3667 19.9018 -0.105792 0.648291 -0.244835 -0.658321
239 1 63.55 34.3782 18.1227 1.76445 0.257949 -1.38061 1.22758
240 1 63.55 32.5502 19.9111 1.76646 -0.455517 0.816947 -0.686748
277 1 63.55 32.5854 21.6582 -0.0749623 -0.265533 -1.81575 -1.13574
279 1 63.55 34.391 21.7048 1.76994 1.34516 0.153996 -0.450272
242 1 63.55 1.79366 23.4568 -0.10863 0.472886 -0.810097 -0.698537
244 1 63.55 0.0207918 23.4742 1.77011 0.329065 -0.0407312 1.37335
248 1 63.55 3.61077 23.5066 1.71637 -0.422794 -0.519345 0.620782
281 1 63.55 -0.0732721 25.2476 -0.0425726 -0.742314 0.779387 0.977179
283 1 63.55 1.78697 25.3211 1.68979 0.143911 -0.627706 -0.408085
285 1 63.55 3.60535 25.2328 -0.071219 1.40482 -0.16784 0.623894
246 1 63.55 5.39867 23.4608 -0.0657922 -1.0331 0.393195 -0.64134
252 1 63.55 7.24464 23.4693 1.79036 0.706154 0.895305 0.787205
287 1 63.55 5.38599 25.3186 1.7195 -0.265133 0.00298488 -1.34665
289 1 63.55 7.21585 25.2717 -0.0882456 -0.300408 0.27373 1.08417
250 1 63.55 9.01336 23.4871 -0.0346899 0.522962 -0.561167 0.126094
256 1 63.55 10.8093 23.5436 1.75851 -0.891986 -0.285097 0.442258
291 1 63.55 9.07218 25.3514 1.73715 0.590465 0.257646 -0.414454
293 1 63.55 10.8134 25.3167 -0.0553098 -0.436376 -0.0127731 0.141873
254 1 63.55 12.6615 23.5153 0.0211731 -0.513689 0.66627 1.1873
260 1 63.55 14.5479 23.4662 1.7753 0.516633 0.334552 -0.0800392
295 1 63.55 12.6696 25.3314 1.75298 0.498339 -0.546644 0.00947898
297 1 63.55 14.5204 25.315 0.0060685 1.74348 0.0194735 1.42365
258 1 63.55 16.3349 23.5226 -0.0297055 0.252253 0.632021 -0.640291
299 1 63.55 16.3304 25.2841 1.78727 -0.438717 1.37541 0.72777
262 1 63.55 19.8915 23.5325 -0.0726076 0.550853 -0.783006 -0.0457128
264 1 63.55 18.144 23.4886 1.7378 -0.439004 1.73349 -1.14489
268 1 63.55 21.6614 23.439 1.74263 -0.993555 0.176105 0.585256
301 1 63.55 18.124 25.336 -0.0665393 0.0807194 -0.915563 0.417829
303 1 63.55 19.8937 25.3384 1.84126 0.110291 0.847731 -0.276331
305 1 63.55 21.6778 25.348 0.0176912 -0.0675585 0.310276 -1.56868
266 1 63.55 23.4855 23.5194 -0.0321592 0.704963 1.26437 0.5032
272 1 63.55 25.2533 23.5078 1.78283 -0.0411759 0.344809 -0.283231
307 1 63.55 23.5125 25.3593 1.72601 0.184059 -0.2368 0.349171
309 1 63.55 25.3667 25.2644 -0.0302843 1.30691 0.838115 -0.175332
270 1 63.55 27.1249 23.507 -0.0163885 -0.153269 0.572726 0.184144
276 1 63.55 28.9869 23.534 1.8084 -0.455554 0.0417291 0.467494
311 1 63.55 27.0783 25.3419 1.75615 -0.407396 1.31748 1.94591
313 1 63.55 28.9273 25.3322 -0.0473991 0.202049 -0.223303 1.22274
274 1 63.55 30.7046 23.5377 -0.0832394 -0.0863371 0.720899 -0.0639429
315 1 63.55 30.7452 25.3228 1.79887 -0.196143 0.693324 0.678132
278 1 63.55 34.372 23.4573 -0.0634521 -0.271561 1.02463 -0.927388
280 1 63.55 32.5247 23.5053 1.73121 -1.54324 1.44358 0.221847
317 1 63.55 32.5964 25.2571 -0.085932 -0.454164 0.548575 -0.122419
319 1 63.55 34.3228 25.3126 1.73233 0.774825 -0.57231 -1.03884
282 1 63.55 1.78054 27.0538 -0.0993863 1.14211 0.573284 -0.663771
284 1 63.55 -0.0322397 27.0959 1.70138 -1.6984 0.684469 0.0426421
288 1 63.55 3.53525 27.0957 1.74447 -0.592732 0.926749 -1.08638
321 1 63.55 0.0178076 28.9313 -0.100294 -0.513123 -0.58612 -0.236432
323 1 63.55 1.82206 28.8968 1.73897 -1.03236 -0.15711 -0.644053
325 1 63.55 3.60118 28.8863 -0.0858811 -1.0228 -1.0671 -1.03061
286 1 63.55 5.37548 27.0449 -0.0590643 -0.204397 -1.92562 0.706541
292 1 63.55 7.23181 27.112 1.70886 -0.0541774 -0.253308 -0.452898
327 1 63.55 5.41742 28.9239 1.71754 -0.470989 0.0921058 -0.0517175
329 1 63.55 7.27637 28.9053 -0.0816398 -0.996551 0.254414 1.66882
290 1 63.55 9.06043 27.0953 -0.0461531 -0.161298 0.918608 1.24813
296 1 63.55 10.8582 27.138 1.73397 -0.896467 -0.96411 -1.40976
331 1 63.55 9.08904 28.9216 1.77134 0.334797 -0.0719532 1.18975
333 1 63.55 10.8506 28.9502 -0.0877296 -0.201317 -0.413118 1.60012
294 1 63.55 12.6274 27.0996 -0.0596282 0.998402 1.17999 0.0735698
300 1 63.55 14.4621 27.1119 1.78504 0.0185391 0.569235 0.690302
335 1 63.55 12.6762 28.9554 1.74152 0.328907 -0.549788 -1.03968
337 1 63.55 14.4737 28.8899 -0.0342222 0.136717 -1.04832 0.223002
298 1 63.55 16.2984 27.1153 -0.000501661 0.450677 0.665855 0.955434
339 1 63.55 16.2694 28.9409 1.75523 0.433381 0.187375 0.363368
302 1 63.55 19.8917 27.1561 0.0115594 -0.644115 -0.323043 0.549432
304 1 63.55 18.1144 27.1322 1.7659 -0.485226 -0.534212 -0.036081
308 1 63.55 21.7533 27.1541 1.79129 -0.99279 0.422934 0.0424237
341 1 63.55 18.0571 28.9354 -0.0347868 -0.887915 0.131209 -1.02827
343 1 63.55 19.9402 28.935 1.78674 0.285398 -1.32108 -0.896139
345 1 63.55 21.686 28.9571 -0.0560111 0.940059 1.00513 0.538773
306 1 63.55 23.5385 27.1263 -0.0827787 0.75613 0.142003 -0.567565
312 1 63.55 25.3051 27.119 1.77317 -1.75952 -0.0959733 0.493951
347 1 63.55 23.5455 28.9572 1.78904 -0.394769 -0.371064 -0.27863
349 1 63.55 25.3659 28.9403 0.00420455 0.632783 1.09838 -0.108921
310 1 63.55 27.1182 27.0986 -0.100959 0.395302 -0.235869 -0.214578
316 1 63.55 28.9169 27.1115 1.77388 -0.887732 0.896837 0.0632283
351 1 63.55 27.1379 28.919 1.73218 -1.23609 0.170254 0.609358
353 1 63.55 28.9416 28.8828 -0.0852157 -0.797162 0.519578 0.330962
314 1 63.55 30.7609 27.0815 -0.0187505 -1.37006 0.874989 -1.38078
355 1 63.55 30.7427 28.8942 1.76918 -0.89784 -0.968696 -0.223503
318 1 63.55 34.3497 27.0814 -0.073215 -1.46376 -0.0211486 -0.539909
320 1 63.55 32.5093 27.1315 1.75915 0.19669 0.538984 -1.62925
357 1 63.55 32.5983 28.9708 -0.0743998 -0.207908 -0.127123 -0.846153
359 1 63.55 34.3545 28.8655 1.72041 -0.143368 -0.227248 0.185405
322 1 63.55 1.82765 30.7765 0.000995373 -0.20704 0.192137 -0.560848
324 1 63.55 -0.0261503 30.7654 1.71126 -1.18337 -0.306749 0.707296
328 1 63.55 3.61952 30.7371 1.76753 0.707944 -0.110602 0.517462
326 1 63.55 5.34715 30.737 -0.0593466 -1.1788 -2.34054 -0.171403
332 1 63.55 7.26106 30.7421 1.73452 1.17645 0.826319 0.966021
330 1 63.55 9.02511 30.777 -0.0400053 0.178411 0.860844 -0.746145
336 1 63.55 10.875 30.7672 1.75497 -0.192402 -0.132473 0.544854
334 1 63.55 12.633 30.7735 -0.0725056 0.134045 -0.434393 -0.921575
340 1 63.55 14.4502 30.7498 1.75813 -0.643536 1.24291 -0.0603133
338 1 63.55 16.2422 30.7558 -0.0916843 -1.13475 -0.622452 -0.825915
342 1 63.55 19.9058 30.7283 -0.0617506 0.401483 -0.0792028 -0.76423
344 1 63.55 18.0344 30.7094 1.74231 -0.133581 0.277688 0.398518
348 1 63.55 21.7297 30.7341 1.75492 0.0127347 -0.255336 0.427763
346 1 63.55 23.5568 30.7297 -0.0477451 -1.24592 -0.890534 0.536319
352 1 63.55 25.3816 30.777 1.79339 -0.193616 -0.428368 -2.19579
350 1 63.55 27.1341 30.7284 -0.102233 0.534563 0.585133 -0.496651
356 1 63.55 28.9016 30.714 1.75627 -0.55609 -0.592692 0.561725
354 1 63.55 30.7024 30.7237 -0.102871 0.400463 -0.380191 -1.21772
358 1 63.55 34.3919 30.7404 -0.0171654 -1.16949 -0.663216 -0.159714
360 1 63.55 32.5936 30.6941 1.79073 -0.948039 -0.843287 0.723081
361 1 63.55 0.0129346 32.5753 -0.0458818 0.431984 0.209163 -0.912429
362 1 63.55 1.81718 34.3707 -0.101146 -0.279472 -0.32448 -0.145215
363 1 63.55 1.76428 32.5551 1.7493 -0.367925 2.1457 -0.615336
364 1 63.55 0.00612429 34.373 1.7473 1.18436 0.368001 0.436592
365 1 63.55 3.62455 32.5875 -0.0266299 1.43614 -0.731033 0.0703315
368 1 63.55 3.6076 34.3987 1.75257 1.11952 -0.461671 0.219297
366 1 63.55 5.4487 34.3273 -0.0753273 -0.367045 -0.778898 -0.581711
367 1 63.55 5.42116 32.5369 1.74331 7.80868e-05 -1.24735 -0.843844
369 1 63.55 7.20872 32.5298 -0.0928644 -0.204242 -0.712737 0.258991
372 1 63.55 7.188 34.3527 1.80903 -0.903414 -0.445263 0.613183
370 1 63.55 9.04682 34.3615 -0.035123 -0.232479 -1.05687 0.36756
371 1 63.55 9.02851 32.5805 1.74776 0.586995 -0.570009 -0.230531
373 1 63.55 10.847 32.6131 -0.059439 -0.444228 0.146532 1.18267
376 1 63.55 10.8541 34.3317 1.83141 -0.0123582 -0.758852 -0.473765
374 1 63.55 12.6963 34.3679 -0.0370333 0.131074 -0.568564 0.464457
375 1 63.55 12.6544 32.5878 1.74558 -1.13909 0.569169 -1.68275
377 1 63.55 14.4352 32.5739 -0.0467688 -0.927418 -0.989415 0.858735
380 1 63.55 14.4871 34.4109 1.75662 -0.00277913 -1.1757 -0.019345
378 1 63.55 16.281 34.3389 -0.0914333 0.796857 -0.325575 1.33357
379 1 63.55 16.2656 32.5565 1.73766 0.839377 -0.478655 0.555118
381 1 63.55 18.1005 32.4719 -0.0711652 -0.805284 0.098676 1.21684
382 1 63.55 19.9008 34.3412 -0.0144352 -0.66085 0.243146 0.943787
383 1 63.55 19.8753 32.5076 1.78257 -1.70059 0.91821 0.236535
384 1 63.55 18.0838 34.2611 1.78083 0.747537 1.53164 -0.0658473
385 1 63.55 21.7098 32.5352 -0.0898096 0.135168 0.852438 0.873379
388 1 63.55 21.6697 34.3562 1.73066 0.0928181 -0.886866 0.241718
386 1 63.55 23.4984 34.3607 -0.0348903 0.641172 -1.70466 0.291645
387 1 63.55 23.5175 32.5596 1.72352 -0.0791027 -1.73172 1.44018
389 1 63.55 25.3727 32.5575 -0.0762021 0.25464 -0.753813 -0.0207527
392 1 63.55 25.3667 34.3454 1.77787 1.41623 -0.22945 0.183932
390 1 63.55 27.1277 34.3929 -0.110888 0.023654 0.562043 -0.971652
391 1 63.55 27.1616 32.5977 1.78222 0.696073 -0.638898 -1.20303
393 1 63.55 28.9231 32.5479 -0.108789 -1.2468 -0.847312 2.22303
396 1 63.55 29.0297 34.3297 1.6905 -0.620432 -0.72572 -1.37154
394 1 63.55 30.7669 34.3582 -0.0945116 -0.547351 0.357527 0.0824293
395 1 63.55 30.7431 32.4647 1.73278 0.0986611 1.56647 0.301421
397 1 63.55 32.5362 32.5272 -0.0135015 -0.789211 -0.283244 -0.504143
398 1 63.55 34.3221 34.3173 -0.0279301 0.679758 -0.178436 0.395345
399 1 63.55 34.3368 32.5711 1.8098 -0.139396 -0.446042 -0.176165
400 1 63.55 32.5036 34.3816 1.72163 -0.724372 -0.37188 0.293874
401 1 63.55 -0.0121931 -0.00383456 3.57138 1.041 0.484887 -1.95119
402 1 63.55 1.79053 1.81741 3.58783 -0.311483 -0.129785 0.0643257
403 1 63.55 1.81969 -0.0147983 5.40313 -0.546846 0.336825 0.257063
404 1 63.55 0.0210932 1.76979 5.38445 -0.402468 -0.978546 -0.722291
405 1 63.55 3.61278 0.0258903 3.56424 0.428086 -0.487226 0.0600387
408 1 63.55 3.59878 1.78377 5.3759 -0.258653 -0.498583 1.03189
441 1 63.55 0.0215329 3.6842 3.62387 -0.26868 0.67766 -0.0612265
443 1 63.55 1.82441 3.62647 5.43223 0.60749 0.567679 -1.25841
445 1 63.55 3.59548 3.57114 3.56285 1.35485 1.21396 -1.3719
406 1 63.55 5.41118 1.84616 3.57593 0.139466 1.19811 1.29082
407 1 63.55 5.39592 0.0204129 5.39223 -0.513843 0.697306 0.478692
409 1 63.55 7.2533 0.0450624 3.56033 1.3015 0.88447 0.992473
412 1 63.55 7.21194 1.82747 5.42022 0.353104 1.44321 0.631035
447 1 63.55 5.39377 3.61187 5.37207 0.648445 0.635741 -0.749866
449 1 63.55 7.21351 3.60594 3.58667 -0.462317 0.96087 -1.29266
410 1 63.55 9.06191 1.85882 3.55495 -1.29136 0.474049 -0.357051
411 1 63.55 9.05659 -0.0167732 5.38093 -0.540433 -0.787594 -1.12137
413 1 63.55 10.8483 -0.0401797 3.59043 -0.763838 0.731771 0.949531
416 1 63.55 10.7906 1.80682 5.36522 -1.09303 -0.976731 0.241635
451 1 63.55 9.00731 3.56685 5.40554 -0.638198 0.124687 1.23563
453 1 63.55 10.8078 3.6144 3.56569 0.155466 0.1214 -1.27791
414 1 63.55 12.591 1.78984 3.57945 0.805649 -1.56592 0.332853
415 1 63.55 12.6421 -0.0498264 5.41607 0.987297 -0.159157 0.260788
417 1 63.55 14.4926 -0.00493218 3.56347 0.886817 0.171261 -0.451356
420 1 63.55 14.4216 1.82265 5.36535 0.851306 -0.613023 -0.596719
455 1 63.55 12.6219 3.60597 5.35325 0.908461 -1.05358 0.456471
457 1 63.55 14.4426 3.62044 3.53697 -0.487753 -0.40385 -0.504443
418 1 63.55 16.2883 1.79841 3.51365 0.209116 0.321785 -0.0982642
419 1 63.55 16.2705 -0.0169596 5.38573 0.0851801 0.294211 0.369224
459 1 63.55 16.2601 3.64448 5.32459 0.14567 -0.273582 1.39082
421 1 63.55 18.0716 -0.0554969 3.52343 -0.231427 0.615015 0.610179
422 1 63.55 19.8696 1.80038 3.5405 0.812083 0.434416 0.778355
423 1 63.55 19.8922 -0.0231942 5.33042 0.0825115 -0.395795 -0.31149
424 1 63.55 18.0437 1.79259 5.28559 1.05862 -0.490977 0.470494
425 1 63.55 21.6434 0.00161884 3.46058 -0.886584 0.210128 1.61022
428 1 63.55 21.7131 1.82787 5.33041 -0.411637 -0.402011 -0.304748
461 1 63.55 18.1259 3.60044 3.51707 -0.548343 -0.187243 -0.0682234
463 1 63.55 19.9209 3.60007 5.43321 -1.56271 1.03004 -1.0211
465 1 63.55 21.6902 3.62208 3.47086 -1.42182 0.312006 0.518465
426 1 63.55 23.4898 1.79439 3.50642 -0.267264 -0.975726 -0.914852
427 1 63.55 23.4995 -0.0187805 5.32908 0.0442911 -0.583549 0.405092
429 1 63.55 25.3088 0.0272302 3.52627 -0.353434 -0.861008 1.10195
432 1 63.55 25.2912 1.74198 5.28982 -0.21954 -0.185514 -0.501572
467 1 63.55 23.503 3.61344 5.31363 1.49967 -0.189919 -0.984198
469 1 63.55 25.2626 3.61692 3.49815 0.627931 -0.322111 0.0453821
430 1 63.55 27.103 1.81528 3.5134 -0.557782 0.446975 0.0318901
431 1 63.55 27.1201 -0.0204171 5.38314 -0.0269729 -0.310476 0.0960242
433 1 63.55 28.9185 -0.0503379 3.52891 0.749501 0.401863 0.0884449
436 1 63.55 28.8984 1.78247 5.36998 0.250263 1.02731 0.352554
471 1 63.55 27.0379 3.6059 5.32818 0.901656 0.0531128 -0.0940752